-99.33259
-103.98979
-107.39671
-109.84867
-105.77663
-110.78757
-107.17334
-101.53943
-102.43514
-100.48135
-95.92759
-104.36277
-98.46256
-97.01726
-111.93655
-112.87345
-110.53277
-106.66018
-104.17003
-107.62346
-102.77772
-100.49194
-102.03281
-105.95383
-98.85759
-107.19622
-102.80672
-100.48165
-98.32322
-105.54482
-106.51061
-104.50257
-100.85429
-95.07861
-98.92454
-99.66148
-93.09929
-97.36958
-100.11442
-91.70018
-98.06124
-101.08420
-101.75899
-102.79392
-102.63716
-105.93880
-102.72610
-98.48818
-104.74024
-107.99647
-106.98099
-102.04319
-105.21571
-104.02602
-111.20562
-104.25393
-100.66899
-103.34340
-97.73887
-100.54282
-98.84105
-103.08792
-101.18621
-101.59202
-100.10542
-101.52025
-96.11856
-90.73518
-100.41467
-101.01302
-97.79691
-93.25563
-92.82249
-98.22252
-101.21497
-97.24379
-90.04673
-87.11557
-93.47019
-86.97477
-96.68663
-94.90055
-91.22924
-96.78441
-90.64342
-96.73830
-94.69232
-99.64958
-102.79186
-104.69858
-99.53330
-108.65496
-104.25270
-109.34308
-102.06313
-98.46123
-109.23758
-105.14011
-109.20390
-104.21754
-102.23565
-105.83268
-107.98568
-104.38463
-100.39741
-108.82337
-100.95902
-103.40299
-92.39619
-95.25135
-92.74518
-98.24138
-102.36717
-99.85132
-103.15569
-103.79544
-105.19760
-94.26858
-82.25158
-91.29156
-85.31810
-82.71427
-86.69819
-82.03542
-79.94371
-86.08599
-85.15775
-85.49158
-80.46181
-79.99869
-80.45010
-85.49579
-84.17408
-80.88420
-82.23819
-81.82348
-79.49916
-80.85796
-84.97066
-81.27692
-71.07970
-75.95016
-81.45286
-83.51720
-85.77017
-82.18338
-75.35933
-76.17442
-74.77745
-82.82237
-75.24644
-79.48061
-79.04784
-73.12610
-75.31252
-70.40653
-75.66004
-82.51265
-81.97517
-76.98179
-77.62222
-77.21394
-75.18540
-78.17662
-77.23250
-76.00274
-77.12517
-75.09961
-78.16486
-74.13895
-71.86275
-75.16772
-64.95265
-68.43932
-74.56342
-71.77535
-74.00060
-71.82494
-68.24244
-64.13150
-74.47593
-78.73607
-71.88366
-75.75476
-75.58753
-83.96667
-81.85817
-78.15182
-80.85263
-74.86040
-73.51884
-76.64355
-82.46218
-80.54297
-70.53007
-76.59953
-69.25513
-74.97929
-73.20744
-75.08838
-77.19671
-76.71378
-76.92397
-80.92642
-79.27342
-71.27063
-70.14768
-75.55157
-72.36808
-71.16376
-72.01467
-73.91809
-84.58931
-80.83158
-77.56366
-78.60561
-78.74595
-75.84232
-77.20635
-83.18954
-87.42504
-80.71265
-87.18224
-85.12395
-90.47721
-82.74028
-83.28875
-88.41746
-88.21851
-89.25862
-87.37428
-87.02651
-84.55822
-85.87225
-86.65419
-88.68624
-89.02800
-91.82064
-81.82902
-89.12428
-80.49956
-79.85736
-85.18219
-85.70131
-76.38440
-82.48132
-79.34922
-80.45758
-80.70644
-74.21993
-79.01271
-81.76147
-82.52500
-75.45320
-79.61483
-74.56477
-64.99904
-72.83589
-73.48257
-67.21233
-67.77977
-79.06816
-73.22783
-64.58139
-70.01625
-75.68992
-76.82302
-75.67298
-79.77300
-76.98084
-76.41807
-78.95988
-74.95517
-80.82473
-82.63285
-78.75621
-72.10125
-73.95795
-77.33182
-78.38235
-71.36993
-65.86211
-71.87595
-73.26636
-74.36771
-76.11569
-79.20866
-74.84153
-69.21761
-72.17402
-75.33070
-75.81789
-76.56937
-69.99256
-78.57432
-76.33508
-75.08684
-76.59977
-71.12505
-73.60647
-70.98276
-68.76646
-68.10623
-68.40586
-71.08572
-70.19574
-71.67006
-71.76057
-75.63364
-75.12912
-68.59593
-68.67368
-66.45222
-61.75779
-58.13159
-64.24514
-66.80551
-74.33496
-73.74845
-84.46540
-75.36125
-69.65395
-75.01210
-72.16378
-80.04597
-83.06984
-77.40539
-78.08204
-75.77103
-77.26453
-78.49774
-81.83519
-81.20589
-80.84624
-79.71818
-84.39346
-78.67336
-79.52609
-81.45072
-82.08830
-77.07297
-78.58439
-68.54826
-74.63419
-78.70537
-79.61192
-82.16538
-77.55460
-79.39685
-75.94575
-72.98486
-65.66080
-67.44190
-74.24312
-77.55224
-77.45457
-79.08754
-76.51202
-75.15604
-83.85068
-79.16879
-82.15394
-79.22996
-75.43661
-77.21078
-83.36659
-76.64712
-72.43815
-77.55903
-78.22303
-74.86649
-75.36778
-70.87582
-69.37691
-69.37862
-74.34862
-78.94126
-75.57024
-79.60472
-83.64792
-74.11568
-74.19745
-75.39897
-73.87959
-77.71356
-82.98193
-80.77911
-73.33056
-81.23988
-77.23060
-80.02235
-81.61408
-86.91869
-83.32269
-77.74464
-84.04163
-79.58467
-74.51065
-72.45611
-73.43011
-76.43787
-73.74517
-86.27068
-76.13085
-71.55225
-79.86879
-82.39439
-76.39318
-71.72851
-73.85110
-72.81280
-71.42827
-67.13460
-63.16233
-55.53058
-68.80569
-81.16201
-77.70141
-75.23108
-74.46787
-67.49884
-68.51294
-74.48448
-69.20140
-65.26591
-69.32845
-76.69363
-81.63582
-82.07344
-85.06603
-82.47737
-77.24417
-75.01459
-68.21895
-71.95310
-75.00688
-80.05173
-73.33900
-69.67998
-68.35216
-79.61693
-76.25445
-76.69276
-76.82051
-77.65192
-83.60345
-84.50036
-88.13386
-79.35719
-81.13834
-77.98334
-82.69927
-74.42835
-77.47567
-85.51351
-82.15020
-87.11442
-88.74280
-85.49479
-75.34657
-79.97927
-81.29204
-83.97619
-83.30270
-84.01076
-83.86622
-84.39424
-83.35882
-83.78640
-83.50757
-86.78994
-85.96255
-88.58319
-84.34404
-82.26178
-80.95178
-81.47852
-82.51335
-83.06777
-83.65373
-74.00169
-88.67113
-87.43284
-86.79510
-80.88051
-73.15736
-66.74356
-65.83672
-68.26177
-73.60842
-71.53418
-72.87132
-70.39289
-71.71587
-72.97884
-77.63836
-81.18416
-87.12969
-77.42646
-73.49008
-83.59759
-81.20760
-83.78138
-78.25618
-80.20155
-82.49029
-83.84651
-85.66397
-84.94613
-79.75435
-79.46120
-77.09055
-73.55609
-76.49819
-76.13588
-72.88492
-76.55764
-70.86547
-67.94551
-68.07250
-74.14745
-67.39093
-70.98305
-68.90753
-73.03201
-76.62197
-72.95159
-84.34059
-86.76042
-85.95795
-84.32652
-91.07071
-87.76501
-89.81458
-93.48640
-93.56100
-89.02529
-86.89581
-88.07506
-87.21517
-83.29623
-81.56823
-85.81131
-87.82126
-86.60284
-90.29114
-86.93752
-88.38951
-88.99889
-91.27657
-85.15580
-79.58681
-89.61808
-87.17961
-87.62816
-84.21796
-89.29581
-83.01582
-88.36547
-79.25462
-85.64490
-92.02438
-96.21289
-99.20131
-95.70789
-92.03003
-101.09124
-97.33287
-99.49365
-91.38948
-83.33886
-91.90892
-95.52244
-97.12420
-101.02509
-105.68559
-102.67249
-103.50145
-92.32697
-93.31537
-91.53192
-97.08501
-95.98801
-93.24720
-91.10490
-85.47568
-82.48338
-80.72943
-85.54161
-87.60383
-91.73805
-89.46510
-83.94518
-88.57969
-86.88914
-86.11104
-90.23743
-89.08090
-88.44728
-84.23805
-81.41048
-82.42197
-84.23235
-87.13748
-91.64267
-85.03058
-84.30016
-82.32361
-79.16587
-78.41845
-89.46148
-82.44821
-84.10944
-82.71491
-77.84550
-77.63225
-84.01937
-85.18127
-78.22593
-75.30802
-71.17280
-71.84271
-78.55416
-83.93829
-78.71613
-84.79898
-79.61664
-78.49018
-78.99356
-83.57781
-80.87798
-84.55519
-81.35077
-80.39554
-76.08618
-81.79581
-86.49334
-75.61771
-82.39383
-85.96362
-82.44619
-77.70500
-78.68843
-84.17118
-80.05789
-78.23071
-79.23203
-78.45852
-79.25219
-83.74890
-82.76652
-81.96415
-73.59760
-74.98097
-76.86029
-85.30210
-79.08599
-77.28636
-79.87485
-81.93183
-81.65780
-80.91567
-79.34427
-82.96171
-85.07520
-80.61249
-77.94554
-78.56011
-78.85196
-75.28957
-75.06344
-81.68942
-76.90573
-69.50179
-71.50663
-80.58810
-84.34884
-82.17587
-77.57411
-84.06947
-84.23831
-83.05900
-86.91583
-83.03218
-81.40205
-75.01245
-61.08580
-67.32716
-72.51046
-73.42175
-73.26060
-82.17071
-83.85403
-83.54138
-83.64325
-85.34866
-83.02218
-83.25240
-83.51015
-79.86951
-87.15749
-85.10515
-90.46266
-85.77545
-83.84040
-85.35584
-86.22505
-78.27586
-82.42864
-85.40030
-88.34865
-85.49673
-88.28201
-88.91785
-90.20011
-89.81854
-85.34271
-82.93974
-79.80014
-84.01623
-92.78951
-79.34444
-84.57126
-79.57440
-83.76308
-83.28759
-90.20405
-85.64120
-89.03066
-90.26305
-99.19197
-88.09182
-83.34079
-89.26854
-91.42615
-94.59901
-90.47230
-96.76948
-96.88261
-94.31163
-92.00353
-90.86781
-93.57493
-93.70020
-88.01196
-87.92874
-85.34465
-75.38174
-86.71739
-82.49037
-84.50398
-82.27430
-78.68553
-80.90858
-85.87599
-86.21522
-87.22447
-86.26768
-88.97675
-86.26173
-83.47598
-86.01179
-88.13469
-82.34215
-88.17735
-88.75184
-89.51028
-81.97148
-84.02272
-85.63479
-77.54347
-82.13066
-80.63753
-74.92379
-77.56254
-72.94654
-72.63290
-74.40363
-82.00361
-89.65861
-85.36384
-81.48144
-78.61887
-81.72924
-81.53280
-79.94059
-88.78226
-82.30721
-76.43887
-75.37960
-84.90764
-87.14831
-89.41382
-88.84020
-90.86952
-90.57250
-88.34511
-87.54420
-84.60209
-84.47830
-86.30320
-91.03951
-90.21071
-96.25726
-92.94116
-92.40788
-88.27900
-90.80501
-90.99193
-85.20624
-90.21829
-84.93636
-84.55615
-87.70562
-84.80778
-87.16254
-85.26797
-92.91132
-89.20132
-89.63031
-92.86590
-88.75958
-91.85888
-86.29481
-89.78888
-83.96464
-83.67595
-86.52469
-83.50657
-87.71921
-90.04285
-88.13904
-92.06653
-92.19841
-91.17109
-94.82887
-89.41731
-82.36399
-82.83210
-84.72795
-88.65685
-86.93153
-95.67987
-84.88825
-87.75697
-88.27793
-96.29316
-98.18354
-97.93654
-89.76893
-95.69369
-100.19584
-99.70588
-96.00155
-95.35341
-92.04276
-93.65237
-84.91959
-80.92482
-84.07498
-90.28831
-82.42788
-81.03625
-81.05453
-88.31796
-84.14656
-88.69754
-90.77808
-83.75928
-88.03225
-85.23368
-85.96127
-78.66631
-79.64766
-77.02444
-82.96737
-82.93384
-82.52869
-88.68238
-92.34680
-90.17946
-89.86234
-91.87782
-91.71226
-90.09810
-92.83214
-87.56216
-82.73141
-80.42241
-79.86821
-92.73508
-97.16891
-83.99119
-89.50074
-95.08121
-94.62770
-96.92339
-96.12869
-89.54044
-87.62848
-84.70820
-82.55387
-84.14543
-88.15716
-87.45502
-91.25374
-97.58599
-99.08275
-96.39017
-99.47995
-95.18451
-96.07931
-96.26840
-99.17866
-97.45657
-90.42344
-94.49461
-95.50142
-98.18848
-100.05796
-99.33391
-98.02573
-97.15117
-96.96034
-93.45058
-97.73330
-92.61275
-87.95737
-93.48416
-92.21728
-90.37487
-93.76139
-88.98561
-94.03344
-89.67291
-84.21659
-88.36046
-94.42144
-89.82127
-98.06939
-90.20943
-87.27816
-92.23085
-91.20302
-88.42383
-89.60950
-87.07927
-91.92082
-93.37509
-93.14122
-90.47963
-90.90661
-96.27624
-87.28959
-93.14754
-91.73712
-92.40394
-93.40526
-91.43796
-87.47266
-82.76635
-89.18228
-90.30203
-92.47812
-86.96813
-88.58891
-83.36094
-79.12821
-87.66289
-86.54122
-84.97313
-86.23131
-73.22048
-75.43358
-82.71461
-85.14799
-86.60660
-75.69221
-81.86547
-82.81292
-82.29723
-81.48756
-83.13651
-87.67149
-87.61735
-87.55278
-86.08177
-84.26900
-84.93079
-85.01147
-87.36890
-87.74764
-93.49555
-90.74064
-84.53171
-85.91362
-81.18966
-83.85397
-80.29831
-83.57784
-90.57528
-94.25324
-88.78209
-88.90829
-92.13223
-84.66256
-87.10468
-88.87052
-85.42200
-77.74650
-77.45161
-79.53392
-77.51927
-79.87435
-80.89193
-81.17775
-80.49876
-85.22604
-86.99577
-83.83690
-86.59121
-89.78821
-82.73251
-86.80348
-84.07043
-79.06232
-78.53916
-77.25330
-75.26095
-78.18691
-83.45892
-82.79147
-75.82489
-74.24838
-82.92971
-78.73614
-83.78443
-93.38113
-90.02408
-84.03759
-86.91456
-90.68980
-94.43381
-89.37477
-89.81582
-88.57265
-83.12715
-84.70230
-86.48896
-84.70832
-86.27648
-83.37310
-87.18722
-89.47337
-90.32356
-93.50972
-88.42832
-83.91482
-80.58764
-79.31537
-74.25210
-72.29774
-74.53204
-74.56779
-86.55637
-81.99765
-79.67798
-81.89517
-87.01695
-86.68694
-84.46850
-86.81342
-80.57887
-79.49824
-83.73671
-78.31487
-75.99313
-77.43246
-77.07749
-79.93995
-79.77987
-74.68160
-67.54753
-71.93540
-64.02231
-72.36047
-75.62119
-82.03102
-85.80757
-89.77337
-86.25059
-76.76594
-72.17528
-72.22602
-75.13958
-75.69547
-83.68667
-82.48808
-80.91713
-71.03165
-69.27149
-66.76195
-68.20333
-76.20146
-75.45566
-77.05658
-70.24144
-72.56838
-79.73844
-75.40360
-70.28265
-77.01101
-79.01898
-80.70392
-74.69524
-81.66429
-82.44995
-78.98043
-78.03926
-80.44021
-72.12312
-72.82641
-72.30271
-77.73468
-72.66194
-81.89738
-79.26145
-73.89617
-72.30785
-69.66846
-73.45780
-73.30661
-79.67935
-76.37733
-77.97020
-76.32436
-79.49200
-74.77473
-81.42319
-78.53235
-78.10168
-78.92079
-76.90780
-74.30642
-78.66480
-77.08739
-79.67002
-81.69386
-75.72873
-78.11326
-79.82496
-71.04411
-75.69641
-78.84812
-71.60292
-85.25182
-81.58620
-82.68861
-82.92954
-81.83219
-76.67151
-72.45361
-71.15858
-72.67891
-82.16981
-76.79045
-76.97018
-74.56154
-74.32511
-75.66682
-79.02438
-79.01397
-73.53199
-83.21847
-89.42934
-79.64832
-76.79542
-78.61457
-82.04208
-78.94362
-78.49587
-75.34110
-73.67543
-81.65802
-87.26400
-81.78101
-87.84676
-91.04101
-83.85113
-90.85203
-96.77418
-85.35523
-82.16149
-87.79185
-83.32255
-78.40008
-78.47843
-78.78824
-79.33247
-81.88092
-79.49763
-85.79942
-87.89997
-82.76145
-87.54677
-88.08018
-94.09711
-92.94694
-89.69406
-90.67371
-89.57185
-84.27154
-90.87754
-89.60353
-94.24677
-93.89055
-90.51158
-93.78285
-93.68160
-97.51746
-89.80630
-88.57115
-95.41379
-96.01094
-96.76275
-98.59812
-91.62583
-99.75937
-91.60940
-90.10078
-89.47568
-86.67496
-89.40163
-87.94264
-83.91163
-88.50521
-88.24348
-85.19358
-85.30259
-88.27824
-87.53465
-88.34654
-90.58891
-89.54929
-89.60574
-80.37432
-86.75443
-90.29486
-96.56017
-88.96924
-89.13606
-81.10115
-90.20804
-90.32202
-90.47119
-91.30376
-83.25493
-93.33301
-88.26411
-86.91273
-87.35674
-77.95487
-80.47148
-84.95902
-82.24956
-73.91517
-78.19856
-73.70861
-72.52977
-74.82514
-78.99949
-75.64490
-80.31740
-81.49574
-88.81537
-81.26171
-91.09672
-82.98403
-86.34574
-82.70085
-77.25570
-86.37082
-86.65648
-87.37183
-85.36941
-84.51770
-76.96018
-84.39048
-79.41777
-86.29032
-87.06119
-77.66340
-80.40113
-76.44881
-67.62486
-76.49333
-76.32946
-72.36693
-77.85369
-72.22269
-76.77077
-76.42376
-79.61145
-89.41901
-85.83344
-83.47686
-79.36398
-81.94366
-74.30869
-86.19251
-82.86391
-77.97495
-91.23097
-88.03353
-91.93948
-91.97859
-84.95749
-83.46169
-85.65782
-82.12164
-83.41683
-82.78460
-85.25514
-83.46963
-88.99741
-87.65668
-83.78472
-83.62659
-81.37614
-80.21063
-77.10177
-73.69810
-75.10377
-71.83494
-74.59328
-77.16284
-78.24975
-74.32958
-83.24202
-81.40267
-74.66659
-74.08606
-68.72432
-68.77383
-71.66049
-75.09589
-76.14759
-73.32172
-77.03323
-64.05756
-69.16504
-62.29393
-70.57560
-66.01145
-66.80525
-68.38901
-68.06101
-77.16082
-76.62313
-75.71484
-78.30555
-88.46974
-81.17220
-77.70538
-79.69498
-86.76966
-85.90449
-78.66507
-73.00253
-72.65237
-80.33015
-77.60772
-78.80580
-71.44652
-76.23985
-72.32080
-69.16001
-59.63560
-63.90463
-61.57460
-67.25486
-56.44196
-59.58496
-62.72942
-65.48620
-61.61545
-63.17489
-66.94849
-75.78816
-72.04700
-64.08360
-63.49154
-50.89207
-59.25034
-63.26554
-65.08890
-62.44900
-65.15552
-66.57310
-66.55385
-61.22320
-65.47032
-66.76727
-75.01017
-73.97033
-79.76590
-78.74725
-71.01057
-75.83258
-72.57211
-74.20275
-74.81602
-70.95795
-73.05071
-67.13008
-62.91593
-62.88978
-71.93290
-65.04287
-65.26005
-65.23115
-65.20708
-72.31847
-73.37454
-74.13922
-78.11093
-75.58637
-67.95630
-62.62804
-60.43503
-60.23784
-54.76169
-56.94695
-59.69604
-62.29651
-64.16671
-60.28223
-61.82325
-61.44066
-59.13200
-59.97194
-59.28684
-60.81938
-67.44904
-64.71524
-68.91783
-62.19112
-59.61969
-62.58778
-69.37278
-70.20023
-72.40112
-67.55281
-72.01000
-75.95437
-78.62203
-74.55998
-72.34820
-72.86106
-75.93905
-80.31745
-76.15809
-78.93296
-80.07221
-82.32189
-72.66561
-72.66159
-79.69166
-81.86604
-83.84339
-86.84289
-85.64471
-81.04122
-87.22264
-95.39650
-85.65397
-86.90303
-83.19024
-77.59070
-67.70465
-72.41954
-74.45909
-74.88470
-76.41129
-81.00132
-76.97417
-79.93164
-82.06311
-82.57845
-81.90435
-76.43930
-75.76678
-79.39226
-81.61675
-87.23138
-88.37387
-81.72060
-88.57746
-93.66527
-90.55576
-87.52927
-94.58386
-92.05813
-97.33876
-97.11782
-101.35516
-97.69343
-93.71232
-92.63001
-97.80063
-94.72330
-90.88923
-92.81000
-90.93088
-91.64609
-91.95834
-92.58340
-88.98646
-91.20739
-95.58826
-96.93455
-90.31247
-89.69787
-90.48498
-88.60518
-88.49071
-94.31630
-95.54461
-88.16025
-87.09757
-89.84838
-93.67329
-90.69259
-87.63055
-94.54323
-93.10067
-92.27186
-88.03276
-89.76488
-99.85705
-93.75470
-99.03624
-97.34695
-99.50835
-94.36187
-88.80611
-85.20349
-86.43034
-80.70952
-75.88906
-83.26227
-90.08181
-88.15006
-82.98731
-75.57383
-78.75766
-78.22177
-81.96547
-79.11513
-77.48108
-77.12863
-84.03852
-84.42341
-84.33667
-90.43879
-87.50629
-88.69922
-89.67204
-94.69590
-97.71528
-99.05009
-98.51521
-96.45668
-92.71571
-89.28852
-98.37659
-98.35814
-93.24529
-96.66580
-95.39935
-98.79972
-96.55465
-103.23451
-97.62656
-96.98287
-93.59632
-88.41572
-83.89566
-88.38006
-86.57478
-84.89447
-84.96204
-83.02489
-80.69723
-89.70075
-82.98841
-88.11800
-84.15058
-83.60979
-83.25784
-91.61340
-81.19452
-84.68748
-87.83565
-74.36761
-77.17435
-77.85092
-76.24683
-82.24418
-84.70111
-84.86170
-85.40075
-76.62788
-74.15068
-70.92470
-73.42072
-74.71285
-71.79788
-75.34408
-78.83694
-82.61199
-84.93145
-84.88425
-85.66195
-89.42764
-86.81666
-86.37388
-85.58856
-85.74738
-91.56632
-82.31761
-85.07433
-86.50891
-86.87557
-85.60435
-85.56090
-86.31539
-88.64868
-90.40890
-80.50779
-82.86387
-84.28149
-87.01414
-88.66212
-91.68897
-86.45195
-85.52271
-87.42199
-84.66955
-76.41678
-82.24053
-86.05016
-87.37225
-88.79238
-87.61910
-89.82549
-87.88848
-95.73303
-90.03328
-94.55765
-91.59618
-93.39952
-89.77596
-88.54219
-86.73566
-90.24232
-88.17295
-90.02618
-89.76734
-88.42469
-88.32546
-86.97640
-84.99304
-82.62829
-85.31046
-86.04366
-83.02458
-84.44505
-81.33789
-84.51901
-78.33398
-79.49288
-75.95035
-81.51741
-75.32456
-77.18609
-79.74405
-79.21094
-75.72821
-69.46243
-60.45135
-69.57014
-67.46538
-62.65814
-72.54269
-72.89789
-69.74750
-68.82696
-77.22212
-74.40064
-77.71118
-70.45148
-63.09269
-62.93527
-65.06502
-65.36475
-65.04373
-63.01495
-63.41756
-64.20680
-69.93216
-64.52450
-66.82359
-63.87142
-70.34448
-70.32761
-68.33659
-69.09155
-66.85353
-79.19596
-82.05753
-82.76327
-74.84292
-72.40354
-66.21361
-71.19072
-76.86992
-75.62487
-66.56870
-66.04386
-70.90355
-75.04276
-77.08268
-69.73374
-67.82815
-74.11352
-77.70719
-79.35925
-68.23570
-68.50059
-66.70863
-70.12928
-71.31468
-72.08137
-76.32742
-75.85832
-68.16012
-65.04633
-74.42898
-79.58638
-81.17320
-76.75836
-72.67819
-71.30336
-75.19093
-78.32119
-82.29206
-75.29214
-76.65634
-70.84479
-72.33432
-68.50578
-67.44013
-68.81742
-73.03996
-71.98092
-72.59592
-77.14022
-81.46147
-83.60527
-79.39415
-74.78414
-83.32372
-78.50896
-74.55765
-78.04001
-77.84602
-72.04376
-71.69974
-76.90738
-69.26025
-69.36448
-70.08470
-69.66389
-70.40757
-67.92111
-69.09628
-63.25782
-62.17609
-61.28945
-61.39998
-58.73176
-63.14955
-63.19363
-64.86834
-62.76364
-63.52519
-65.79210
-68.84488
-66.26950
-65.92126
-66.13469
-64.56379
-65.71885
-69.42641
-64.42655
-68.22070
-63.76956
-65.33395
-68.60847
-67.16083
-64.31786
-69.41457
-75.15211
-76.13783
-69.44601
-72.06848
-75.26713
-66.81968
-60.83573
-65.92797
-66.09673
-73.22619
-75.86539
-78.87614
-80.70227
-84.54214
-71.64791
-78.14919
-77.92021
-72.51738
-66.15849
-68.33777
-70.51522
-68.49058
-65.56994
-61.06958
-51.51212
-57.92216
-56.84414
-52.72315
-57.27845
-56.16071
-57.64663
-63.69400
-60.79571
-61.07267
-58.79446
-53.61646
-67.79758
-60.81374
-56.51819
-62.86558
-59.46900
-61.11559
-64.27637
-67.05987
-65.15599
-62.31318
-61.83381
-56.35671
-61.25178
-56.92874
-70.57390
-71.65162
-67.81998
-70.42277
-70.03814
-73.23528
-72.94809
-75.86950
-70.78062
-72.19277
-74.62120
-77.29122
-75.76756
-77.38937
-74.12372
-80.73273
-80.47798
-83.29989
-83.31606
-81.17316
-88.71069
-84.30458
-81.58058
-74.84192
-75.41723
-67.80155
-72.52625
-72.39324
-69.79236
-63.88774
-70.17148
-73.16146
-70.90534
-72.58081
-73.29169
-67.27573
-75.25141
-75.62804
-73.72433
-77.80390
-76.71719
-76.59308
-76.20180
-74.15923
-80.59275
-78.82165
-76.34592
-80.90893
-77.34126
-71.50584
-71.10305
-71.67266
-78.87195
-78.40576
-83.88732
-86.52289
-79.48716
-81.65354
-83.41364
-81.16619
-76.80513
-78.07065
-77.76866
-76.05606
-75.10453
-76.17968
-80.66482
-78.44931
-75.99112
-79.54303
-76.71950
-77.34273
-78.26925
-78.32875
-80.12986
-76.60686
-83.12386
-80.92945
-79.73443
-84.03148
-75.88126
-73.70183
-76.25684
-79.20199
-82.01757
-77.47484
-70.27363
-77.06895
-79.62398
-80.20780
-78.86643
-81.28063
-75.50293
-70.60861
-74.96141
-75.31307
-68.60586
-69.13155
-66.94005
-66.34182
-65.49813
-60.32310
-65.39073
-68.62574
-65.26088
-66.58917
-66.43463
-71.02450
-66.01247
-67.61686
-63.61351
-69.03682
-65.77258
-68.46027
-73.79568
-75.40652
-76.43677
-79.05664
-79.01213
-74.50787
-73.97677
-74.10407
-73.56678
-71.33392
-64.58588
-64.38359
-71.40750
-73.10634
-74.60335
-75.49201
-76.30501
-80.85722
-77.86798
-72.22003
-77.89140
-70.90369
-77.54175
-85.43529
-90.19756
-92.04159
-84.66530
-84.47428
-85.40893
-85.49845
-73.67658
-75.77516
-74.75897
-72.01172
-79.45486
-81.53919
-85.58316
-85.85692
-76.52854
-76.61953
-77.83208
-83.45608
-77.52163
-80.29912
-77.68892
-74.71938
-69.19467
-68.92356
-76.40847
-68.05678
-78.46259
-79.73775
-79.73538
-75.25102
-77.21801
-78.62241
-81.33948
-77.39392
-72.85425
-77.13665
-73.95890
-75.95599
-77.53816
-74.02293
-77.82696
-82.67789
-78.82873
-80.50762
-73.80756
-77.06861
-77.50489
-68.82956
-71.26690
-68.73655
-71.72298
-71.93445
-71.86735
-73.29602
-79.28294
-78.67513
-69.67533
-61.53245
-66.05235
-67.92241
-64.03887
-64.76000
-67.72041
-61.69093
-62.48223
-73.68102
-65.41180
-73.46075
-70.91184
-62.47463
-73.08846
-70.06891
-76.17590
-75.81760
-71.48896
-66.71224
-63.72337
-73.64087
-71.69798
-73.60442
-77.16975
-74.90190
-69.94095
-59.84307
-66.18791
-65.25954
-61.26406
-70.80622
-67.43965
-62.88117
-60.48723
-62.49249
-57.71351
-58.43451
-54.26760
-51.19754
-47.85041
-55.20496
-50.95646
-46.92976
-49.15025
-53.05804
-56.13538
-52.11742
-62.60946
-63.56272
-58.87530
-68.29071
-59.33952
-52.47771
-53.23529
-56.39343
-54.09854
-52.52602
-55.80973
-50.32573
-52.51701
-43.77607
-42.61485
-41.39733
-44.70686
-51.55050
-52.36643
-55.79746
-54.51267
-55.33861
-54.06238
-51.46492
-56.61802
-49.95439
-50.68085
-46.05619
-51.15907
-53.74084
-58.19487
-59.03421
-59.22256
-61.33588
-57.68539
-63.96937
-61.09878
-67.16766
-56.51119
-57.67718
-53.59620
-52.88355
-46.99846
-53.60384
-53.92887
-62.03420
-59.30430
-58.75772
-52.07298
-50.58190
-46.97591
-54.27528
-56.40512
-54.85505
-56.72524
-55.39911
-52.54009
-54.40485
-48.58925
-59.62993
-58.90981
-54.52404
-51.10955
-51.86033
-54.34815
-50.34553
-54.28373
-55.49314
-55.24490
-48.27621
-56.14488
-52.43907
-51.49701
-55.77601
-55.25967
-57.26300
-58.99354
-64.90093
-64.31296
-63.98967
-59.98963
-59.09486
-64.90058
-67.81567
-66.39680
-75.70634
-75.25837
-73.08392
-73.54663
-68.09967
-70.22621
-71.53171
-67.89638
-63.67783
-67.45004
-71.21800
-77.44211
-73.59076
-72.70221
-67.00128
-64.07712
-64.75696
-65.45754
-67.25451
-70.18523
-69.59482
-72.42087
-74.94788
-79.74420
-69.67755
-77.53666
-70.22930
-71.46642
-68.70987
-68.96278
-69.34403
-67.80059
-66.61892
-68.36373
-69.62921
-69.77754
-69.02049
-66.50356
-62.37494
-60.08135
-59.61406
-58.71388
-60.00559
-58.41882
-62.49646
-54.01240
-64.76742
-52.84790
-49.71698
-54.21161
-60.91592
-61.33046
-57.60802
-51.68673
-51.06515
-54.20799
-58.76133
-54.67635
-47.08004
-51.62631
-60.08181
-56.46651
-59.06303
-56.92772
-54.77515
-62.73734
-58.42786
-52.68857
-52.22401
-54.14166
-53.32542
-54.31824
-53.58220
-58.03747
-63.65960
-60.66313
-54.63225
-57.61193
-55.29508
-58.24682
-56.59618
-57.40681
-50.45788
-52.48933
-47.46015
-52.81483
-60.11677
-50.36547
-39.59979
-44.07259
-43.77987
-44.92481
-48.74408
-52.04367
-59.80135
-57.24450
-58.18925
-61.70009
-67.23732
-69.32243
-62.87514
-67.46082
-65.65501
-67.97896
-66.44248
-63.25160
-62.69460
-65.47685
-63.05749
-60.82186
-64.44467
-67.32018
-70.63975
-69.88752
-70.45156
-64.44564
-64.92179
-67.57201
-72.06477
-76.74276
-77.31400
-74.90036
-77.46527
-77.41758
-69.68450
-70.00440
-72.92766
-78.13621
-82.26685
-76.87687
-78.17145
-75.11499
-80.20093
-75.55788
-77.29317
-89.12157
-90.64418
-91.79984
-93.26996
-91.28989
-86.20503
-92.40095
-89.30174
-91.05311
-92.64411
-88.10441
-86.55391
-86.58816
-91.71341
-92.30687
-90.90468
-89.56427
-93.60516
-86.82121
-93.28704
-91.97000
-91.71713
-87.67156
-90.48085
-98.26831
-97.90216
-96.01887
-95.73044
-94.42000
-95.95282
-92.30333
-89.53862
-89.45868
-84.97639
-90.98067
-94.48581
-93.42738
-95.24250
-87.82179
-90.79148
-95.03257
-92.96399
-93.18170
-89.80886
-89.24189
-93.59965
-99.85339
-95.24111
-94.22937
-90.44675
-85.14930
-86.59622
-90.10350
-95.81425
-93.15343
-96.90279
-93.57868
-93.45958
-97.43190
-95.57062
-93.61106
-86.88206
-92.68789
-79.43782
-88.33715
-89.29524
-89.82235
-87.99542
-88.35781
-87.56448
-87.98394
-93.66690
-80.53927
-86.07726
-90.60551
-89.77476
-86.68670
-84.21122
-83.77448
-84.16128
-81.71219
-80.83319
-86.96197
-92.02237
-89.63195
-90.46566
-81.17419
-87.00578
-84.16822
-80.68403
-81.62864
-76.07842
-81.15413
-89.57827
-82.12522
-86.30485
-81.80212
-79.78460
-81.29039
-82.15015
-79.56325
-81.92878
-82.06470
-79.60878
-88.97991
-89.75913
-91.42971
-87.74168
-93.44689
-95.24360
-91.71945
-91.85095
-92.34233
-99.11855
-93.79947
-91.36092
-89.18474
-87.92080
-87.48761
-95.44547
-99.46060
-96.55710
-92.98943
-94.61758
-93.34761
-91.80958
-94.87118
-96.63321
-91.59223
-95.19442
-91.76375
-91.27441
-92.45253
-93.60903
-95.08688
-96.24481
-89.03898
-88.90306
-89.00874
-86.96634
-88.00646
-91.05887
-89.19537
-91.37119
-89.03127
-82.66154
-84.02923
-79.91224
-88.39600
-86.95565
-83.16269
-83.50056
-93.54195
-89.35454
-91.62909
-93.31332
-89.29025
-87.10892
-87.41203
-91.71018
-91.64071
-90.33578
-90.86408
-86.82381
-92.48416
-93.57642
-87.95971
-88.92732
-85.80736
-83.09806
-84.35655
-81.39862
-83.68652
-84.03119
-80.25805
-83.94486
-79.99893
-88.13115
-87.07540
-84.41131
-85.69495
-84.32742
-78.62546
-78.66076
-78.60939
-90.84639
-86.37312
-83.26827
-81.41154
-79.05441
-82.47798
-81.85349
-82.09421
-80.34550
-83.70632
-80.32345
-86.19259
-85.64825
-80.55045
-78.47375
-81.60163
-69.86299
-67.90424
-72.43677
-77.92941
-83.18647
-84.75763
-82.10859
-77.32558
-82.26700
-91.59372
-78.96261
-78.67855
-77.78279
-76.21048
-76.68139
-73.72676
-75.28633
-70.48007
-72.77316
-69.79314
-79.36186
-69.12499
-71.97639
-71.21486
-77.14602
-86.91783
-87.69202
-88.42315
-82.31898
-91.36994
-89.92568
-89.60987
-92.18967
-89.90007
-85.95820
-87.00629
-88.98574
-95.42861
-95.67107
-96.90839
-92.84393
-90.30803
-90.97025
-89.56996
-88.47091
-86.71794
-85.53136
-83.57289
-93.15851
-95.60157
-95.18265
-95.14962
-97.90606
-101.89575
-99.97961
-102.38275
-103.00820
-103.77247
-102.39287
-95.90019
-96.91520
-95.23438
-91.49794
-89.35198
-88.55008
-89.96310
-96.20734
-98.14193
-98.00652
-90.87904
-93.05617
-86.76269
-80.51293
-89.80701
-95.08894
-94.05365
-102.04372
-100.19569
-99.93108
-94.33184
-90.04703
-93.72760
-94.56882
-98.09197
-94.25089
-97.52335
-93.53150
-99.00426
-102.68660
-100.75943
-99.74554
-96.60711
-98.92973
-99.13818
-98.78338
-97.53352
-94.21963
-97.72117
-98.73358
-95.00032
-89.18767
-89.52234
-92.14614
-91.58235
-95.43588
-90.63394
-93.61558
-94.69467
-97.76595
-94.10104
-88.31013
-94.95743
-89.00177
-91.48292
-94.91072
-91.28806
-90.74121
-89.63055
-93.72856
-88.21330
-90.65613
-87.48448
-92.72285
-97.14963
-92.39526
-91.62579
-89.21551
-89.23203
-91.83447
-95.25013
-97.26334
-91.70371
-90.69322
-96.14549
-94.60443
-87.05006
-90.54467
-94.01426
-97.03693
-96.36849
-93.95876
-97.68775
-93.65439
-91.76362
-94.60708
-96.44603
-96.40271
-90.06552
-84.62194
-89.19303
-87.82678
-88.87109
-88.97865
-92.28137
-86.51061
-80.85219
-81.08366
-85.46531
-82.43025
-79.67896
-81.03767
-80.47597
-80.26943
-77.70716
-78.94439
-78.10958
-80.41208
-80.21048
-78.68613
-75.51626
-73.31865
-75.42335
-79.92372
-75.75078
-82.22263
-88.42846
-74.54404
-73.71763
-65.82193
-69.39252
-67.21313
-70.91283
-70.46431
-70.93705
-72.97368
-71.95815
-65.66393
-71.66813
-74.31262
-75.49925
-76.52743
-60.61823
-67.78724
-70.91778
-71.68562
-69.94933
-75.15051
-73.29015
-73.39155
-71.46088
-69.84965
-68.06813
-71.29429
-59.56562
-53.34843
-64.28161
-61.89784
-60.33685
-69.02952
-64.76902
-55.65433
-50.49964
-60.61363
-54.78255
-48.77988
-51.64215
-51.37988
-49.80831
-62.16024
-63.02385
-61.67178
-64.58524
-57.26336
-60.71242
-64.65044
-56.22470
-57.91215
-66.07302
-60.75584
-61.71658
-63.01026
-64.09692
-59.05763
-63.65558
-70.42601
-69.35700
-65.20598
-60.04706
-61.20083
-61.50986
-56.92803
-56.44305
-55.72468
-55.95231
-55.69898
-53.48198
-57.91385
-55.68078
-64.67296
-67.09177
-67.52471
-68.27095
-63.23039
-75.94914
-68.27601
-67.15260
-64.66175
-60.08990
-63.47879
-61.22164
-60.27864
-66.66433
-63.34056
-56.15577
-62.44332
-59.84417
-61.13535
-64.67979
-54.42180
-57.99954
-58.80837
-60.93281
-66.24272
-62.52464
-65.94790
-63.81690
-73.76604
-74.65568
-72.61646
-65.65120
-69.02940
-58.49772
-65.75997
-65.87955
-65.84375
-67.93950
-69.20161
-68.67340
-67.62704
-64.72456
-65.08925
-63.68222
-65.42623
-64.73149
-60.77618
-65.59021
-65.93851
-64.28882
-62.97609
-63.78644
-63.10674
-61.07319
-59.84823
-51.96281
-62.55572
-68.83148
-67.48981
-67.90617
-66.09806
-56.23248
-61.68551
-64.40587
-61.36094
-64.23514
-61.01131
-64.28575
-60.86942
-64.33856
-66.91976
-75.10982
-75.20071
-75.53962
-68.89485
-72.43731
-73.82047
-67.67891
-68.43973
-66.88536
-74.17516
-70.54092
-72.82544
-74.31013
-71.49166
-71.61640
-77.80821
-67.47490
-72.25352
-68.80435
-65.34285
-56.29498
-66.69138
-67.85203
-68.24448
-69.29868
-64.38120
-69.54595
-70.32835
-75.53135
-70.03999
-61.06583
-61.43318
-63.64326
-53.30522
-62.02220
-69.03704
-62.75306
-68.24569
-60.29004
-58.26745
-57.75232
-58.16819
-57.36487
-51.50142
-54.51604
-57.41047
-58.31316
-62.09211
-62.64246
-62.49451
-65.41306
-63.51943
-61.32272
-55.97800
-55.43746
-58.71354
-52.76574
-53.74387
-57.98734
-57.82198
-58.20018
-57.93231
-58.87952
-61.41406
-55.86777
-54.92039
-52.56828
-47.74622
-55.69835
-53.09509
-53.31836
-59.47637
-60.25467
-57.01065
-61.27954
-63.19121
-56.16815
-61.99184
-62.96266
-66.37959
-62.20020
-62.03026
-63.20754
-53.76033
-55.34097
-59.34286
-64.43539
-66.21996
-67.87989
-63.18181
-61.32466
-60.68199
-60.90535
-61.60122
-66.72024
-65.29956
-65.69553
-66.96203
-63.12701
-61.32008
-61.78999
-64.68482
-58.67733
-63.60842
-68.46846
-68.45695
-71.97690
-77.60037
-77.75519
-74.65855
-82.29505
-77.15987
-75.52943
-74.92580
-77.90538
-70.88788
-72.83591
-73.82555
-65.08353
-70.29154
-61.25586
-63.75785
-65.97195
-66.87337
-62.13002
-65.40486
-69.94073
-64.93270
-69.28979
-72.20491
-67.12275
-68.93092
-68.14688
-72.10225
-72.34651
-70.73236
-72.17500
-72.74556
-72.16503
-71.58996
-70.66819
-69.26458
-76.46488
-75.34044
-72.95123