-3.73679
-5.26819
-7.21483
-3.31824
-1.74115
-3.01405
1.49260
-1.63714
-6.96894
-14.54936
-6.78355
-7.32029
-11.53411
-16.93763
-17.15486
-19.11206
-10.54160
-5.11480
-14.11393
-12.80076
-9.01234
-9.25174
-12.78853
-10.29516
-11.89310
-15.62880
-21.30090
-17.30316
-12.64557
-6.92318
-15.62682
-19.11211
-18.53509
-19.33439
-19.11345
-14.70281
-8.18182
-6.40190
-7.38048
-4.33549
-5.87920
-8.36444
-9.50423
-1.15348
-6.84869
-5.41517
-6.41043
-8.30325
-10.39977
-10.88970
-3.15379
-0.71172
-9.06619
-19.25268
-25.71097
-21.69246
-19.42557
-23.78208
-21.35667
-16.16897
-18.07602
-14.82583
-16.93934
-16.06819
-17.73975
-17.70241
-16.27930
-12.26963
-13.32408
-12.92993
-16.97177
-11.28188
-16.67189
-9.92963
-14.45715
-14.11252
-14.75790
-12.50774
-7.19934
-12.48364
-6.74300
-9.85683
-11.89066
-8.54131
-3.35138
-7.43174
-6.15001
-2.75789
-7.47157
-3.68527
-0.46760
-1.84578
-2.64817
-2.99676
2.72276
-6.13972
-8.15908
-5.46333
-2.16440
-2.31558
-8.71465
-1.92538
-0.93305
-2.00514
-4.42396
-9.24314
-7.91700
-14.38522
-8.88566
-9.72518
-11.18734
-8.72560
-17.24388
-15.66931
-13.62089
-11.41323
-9.73509
-11.34557
-7.80014
-2.03018
-5.60068
-11.39036
-11.89719
-13.18470
-8.57899
-11.66596
-5.55193
-8.52055
-13.59100
-6.81266
-10.66172
-12.59179
-11.45673
-6.29994
-4.74282
-6.67692
-12.55088
-13.42433
-16.27704
-16.09364
-17.76599
-14.47279
-16.67794
-13.07749
-12.02469
-12.65730
-13.88107
-14.20137
-15.52871
-11.20035
-13.10828
-13.27795
-20.12143
-13.62040
-14.24386
-21.97734
-17.96129
-18.77028
-17.25999
-14.99314
-14.99526
-14.57230
-16.63211
-17.35149
-17.31977
-20.95598
-16.87416
-21.20931
-21.12672
-16.31260
-22.14932
-11.80916
-7.09445
-7.46966
-6.26699
-11.94960
-14.44118
-22.12576
-19.71652
-15.99446
-15.42428
-12.99034
-8.81011
-4.07397
-12.87740
-5.01208
-11.40829
-8.53508
-15.11083
-16.71022
-13.41235
-15.28041
-14.77028
-11.94429
-7.29412
-1.03978
1.41677
1.60928
-7.42118
-5.13447
-5.86565
-7.25270
-5.60279
-0.55997
-5.11487
-4.17513
-3.23278
-6.96480
-7.40293
-8.63745
-7.35338
-4.29140
-5.95352
-3.86060
-14.21594
-16.95896
-20.20610
-15.28258
-11.86406
-14.73974
-19.91289
-13.23866
-15.65259
-8.36469
-6.05471
-6.69581
-7.71617
-7.58130
-4.99635
-5.92021
-11.42681
-10.85752
-0.95123
-3.15112
-7.63547
-6.53020
-5.98872
-8.85898
-12.87858
-23.30653
-11.53326
-18.59108
-12.68667
-13.62028
-10.92311
-6.85911
-7.95949
-5.08467
-6.44131
-2.94048
-10.46311
-1.54545
-6.72212
-3.15425
-6.22484
-2.00250
-13.05087
-6.59750
-9.19480
-7.75651
-8.57318
-2.96765
-1.86025
-6.82290
-7.74275
-7.07174
4.17552
-4.44209
-9.94078
-7.81420
-6.91650
-5.99707
-8.07710
-5.99491
-10.05292
-10.95426
-5.31222
-6.44256
-1.87126
-3.56081
-3.21800
-10.11488
-6.24164
-8.39156
-9.62826
-12.76654
-12.99105
-9.60568
-6.36347
-4.69461
-7.10965
-10.60698
-8.04917
-4.87786
-9.84412
-16.52170
-18.88478
-14.06539
-16.11161
-12.68246
-11.47473
-16.03421
-16.89397
-17.47325
-16.66458
-13.06481
-14.91801
-7.58760
-15.95595
-13.47345
-14.18655
-15.56827
-9.89564
-11.78912
-17.70678
-15.62948
-15.41677
-22.72126
-26.05083
-26.23453
-22.30445
-32.36665
-26.65027
-24.62607
-20.81066
-21.78092
-20.93179
-24.04240
-21.61269
-17.81813
-11.80788
-13.52393
-13.19499
-12.60062
-14.31108
-18.80194
-13.74714
-9.05174
-15.53826
-18.23555
-25.81092
-24.92681
-26.14484
-25.86141
-26.69472
-41.16026
-31.80389
-24.61157
-15.61327
-16.51050
-16.28765
-23.00081
-19.85030
-32.70881
-33.61831
-21.11762
-21.98697
-18.53780
-17.21605
-21.27831
-20.96494
-16.42534
-21.29817
-12.17375
-10.86975
-14.85695
-9.18052
-10.50759
-13.71509
-12.29510
-21.54295
-14.84184
-14.29859
-17.69422
-12.71773
-17.41229
-20.82512
-29.69308
-19.90456
-14.56941
-18.36344
-20.09455
-18.07911
-15.83600
-13.68287
-14.02141
-15.16021
-12.77697
-15.35914
-12.66350
-14.89288
-10.83751
-15.78716
-17.73132
-13.10201
-13.54747
-14.38740
-10.46144
-15.74513
-3.90945
-6.59646
-5.22855
-3.14593
-2.59099
-14.65838
-7.89549
-15.44570
-11.97017
-1.21792
-8.87524
-13.93205
-16.95373
-11.77758
-6.00056
-8.91589
-17.62399
-10.47376
-10.23768
-6.93123
-8.28044
-8.36033
-8.40590
-10.43028
-9.40548
-13.32504
-13.66035
-15.32506
-16.06881
-17.67411
-18.98575
-20.17329
-19.19562
-26.42162
-25.31455
-21.01465
-26.76561
-21.44173
-16.35450
-9.30036
-3.39350
-7.38425
-15.61545
-9.52929
-8.52397
-11.53390
-7.67008
-17.07768
-23.04026
-21.45764
-24.58888
-26.56045
-23.99216
-22.14264
-14.86322
-15.61704
-7.93452
-12.47438
-18.58628
-14.80913
-15.46776
-17.29466
-9.22431
-14.73850
-8.98424
-3.85639
-3.65855
-8.91483
-12.08267
-7.80597
-9.69869
-12.32721
-7.90596
-12.44433
-18.69777
-11.79973
-9.58617
-8.89202
-8.35948
-8.44026
-12.44677
-14.27649
-13.75469
-16.41983
-11.13417
-16.07595
-16.70484
-12.64382
-17.40030
-17.85634
-12.68575
-12.73015
-13.87795
-15.48194
-16.80398
-20.31561
-23.49513
-16.05538
-11.33968
-10.83894
-20.30247
-18.46245
-19.14766
-18.23307
-14.21817
-20.66286
-21.26091
-31.16558
-24.93217
-24.58036
-16.13021
-15.31686
-25.51109
-25.49986
-19.44419
-19.58645
-15.36366
-19.26903
-16.99519
-14.26401
-18.65419
-13.99601
-15.87149
-16.21210
-18.21042
-17.36737
-17.99691
-13.04876
-13.43146
-10.12542
-13.00419
-21.38486
-19.30988
-12.64664
-15.88522
-12.91648
-15.34684
-16.36823
-22.32774
-18.41786
-15.59772
-17.69758
-11.17727
-18.22606
-16.00174
-8.02977
-4.92767
-12.45368
-15.97926
-15.14261
-9.95112
-10.36532
-11.08849
-11.43264
-8.68446
-8.86060
-8.58905
-8.95558
-13.47102
-11.33446
-14.03817
-12.66256
-15.69775
-8.29242
-7.86426
-7.61886
-9.23187
-10.79690
-12.29068
-11.27227
-9.19544
-17.58616
-21.27504
-15.23226
-12.59226
-7.08796
-17.68049
-13.37192
-8.84233
-4.46933
-12.69663
-16.38617
-11.60704
-18.35678
-16.84758
-18.17683
-12.37434
-13.31523
-8.18575
-6.16863
-8.84535
-13.37150
-12.62683
-10.25584
-9.81080
-10.47779
-10.93115
-16.22586
-20.25003
-18.05736
-18.91886
-29.55449
-30.92052
-27.01186
-25.34231
-23.32292
-16.00159
-23.33917
-16.60095
-26.16086
-24.01846
-22.25947
-26.03630
-25.09303
-19.93506
-20.01463
-21.60018
-24.88811
-19.04357
-25.40923
-19.78780
-20.03732
-18.71766
-22.82326
-21.98317
-24.57427
-20.93791
-18.72978
-19.13023
-16.24826
-15.52223
-12.97934
-16.14435
-19.89277
-26.92659
-20.56529
-25.41479
-25.65006
-22.87505
-23.01891
-17.18094
-14.59661
-8.30045
-13.36910
-11.81228
-13.65270
-12.78919
-13.18498
-10.80060
-14.20432
-13.48737
-19.45030
-19.57125
-14.41718
-18.73422
-20.99395
-16.76178
-19.26334
-19.97202
-14.49667
-14.19095
-17.09136
-18.39616
-13.92542
-17.84006
-14.39971
-14.93077
-9.78264
-13.49863
-20.81220
-18.45801
-14.08485
-9.66363
-8.61472
-10.45569
-13.03833
-12.67693
-6.72204
-14.79521
-12.25605
-15.38513
-9.29792
-5.48524
-10.57829
-12.47533
-10.86168
-11.32447
-11.55366
-6.91374
-16.55044
-15.31017
-17.43066
-15.47519
-17.37237
-14.39058
-19.42284
-10.86193
-11.61611
-17.94497
-10.17388
-8.69247
-9.73512
-10.03036
-7.48882
-8.13954
-5.27061
0.89697
-2.25598
-1.76252
-8.80399
-5.62802
-6.23161
-5.58797
-6.83863
-2.27970
1.92940
1.56737
-2.42054
-5.96477
-2.63671
-7.86138
-0.61015
-16.12175
-8.25902
-11.59611
-12.93237
-5.68943
-7.19402
-5.67185
-4.64004
-8.74427
-7.38397
-2.24344
-2.07098
2.89245
1.87914
0.71742
-3.37894
-7.19123
-10.31313
-5.44743
-4.99206
-11.54695
-17.91545
-11.43927
-16.97939
-16.29312
-15.95677
-11.17999
-9.85948
-14.06730
-19.05992
-20.58794
-15.10688
-9.64379
-15.63040
-14.30288
-11.07589
-6.91797
-16.35895
-13.26809
-19.85559
-18.59786
-15.54331
-9.10900
-7.90409
-14.75344
-12.29608
-11.03169
-2.92400
-5.68177
-5.16070
-5.34972
-10.25583
-3.78320
-8.01061
-5.82719
-5.38438
-8.36326
-4.61174
-10.99848
-11.76579
-11.45585
-7.07776
-8.33536
-17.07841
-14.51477
-12.10719
-9.92897
-10.99539
-4.79836
-11.63276
-6.81563
-10.82726
-13.80726
-12.75012
-8.74929
-5.64793
-4.48051
-11.16047
-17.56192
-16.25569
-9.27413
-12.00072
-6.76699
-9.19577
-3.76632
-13.12663
-10.84919
-7.38385
-5.24499
-9.33507
-15.02043
-6.70028
-3.78533
-6.54102
-9.87048
-10.11410
-7.84051
-8.53350
-3.80354
-5.27427
0.32284
-3.99400
-2.85342
-4.38106
-9.33603
-8.39077
-3.52917
-11.70751
-4.96108
-2.86389
-1.66254
-6.72608
-9.30911
-16.52093
-4.54633
-8.32870
-7.61817
-8.96691
0.36381
-5.03987
-4.64269
-7.54868
-7.86482
0.59629
-3.88554
-4.73869
-4.00646
0.74906
-3.76453
-1.82306
-4.68402
-6.26655
-7.12126
-6.12170
-1.50207
-3.38971
-6.64183
-2.55834
-2.02839
-7.26078
-6.03181
-5.33513
-3.61257
-6.73447
-6.34327
-4.71678
-6.19009
-4.91967
-4.51727
-3.26303
-8.13784
-6.17452
-6.03502
-10.30974
-10.30118
-8.69313
-1.85440
-8.64732
-3.85753
-4.38317
-1.60761
-7.05653
2.24615
-0.04045
-4.76028
-9.10779
-7.14760
-1.70788
-2.35613
-6.46632
-2.87287
1.26645
-6.05776
-1.15233
-0.61808
-4.30288
-3.39750
-5.18887
-2.85747
0.56252
2.73565
-2.74978
-3.92373
-4.36029
2.54214
-5.86046
-9.72021
-7.63255
-4.31712
-7.54514
-7.03812
-7.87522
-1.61912
-3.95517
-7.65595
-9.57311
-7.03736
-7.00162
-6.97188
-2.50078
-7.19396
-5.20674
-10.43864
-7.27227
-7.94684
-4.79301
-9.14177
-14.28584
-11.49639
-13.42357
-12.67221
-8.77423
-16.70286
-11.39194
-4.73165
-0.43981
-4.73998
-10.56317
-13.81355
-13.79158
-11.56710
-14.21969
-15.30768
-20.52925
-11.54885
-10.07737
-9.87099
-8.25547
-12.56921
-8.77460
-6.40567
-7.51161
-3.93201
-3.39166
-1.43209
-4.02944
-9.51093
-9.12276
-4.47588
-9.84493
-11.27902
-15.40848
-13.37458
-9.13676
-10.07973
-8.27002
-11.65475
-17.41968
-12.15249
-6.99515
-3.39200
-4.27197
-7.86887
-7.76373
-8.06355
-5.88029
-0.51174
-4.30831
2.86168
-2.29300
0.78214
0.84851
-7.69751
-2.60707
-6.16822
-9.09290
-4.60331
-2.41699
-2.97253
1.97801
1.39047
1.40403
-2.27184
1.93131
2.34040
2.25553
-0.81533
-4.16191
-1.71738
-2.60499
-5.59209
-6.15691
-9.65606
-5.87420
-5.57292
-3.67445
-5.24479
-0.78782
-0.88745
-4.15403
-5.28779
-7.24314
-8.43428
-9.94010
-2.80168
-2.56449
-9.77045
-6.86762
-12.31128
-5.69928
-13.95569
-9.31657
-10.13495
-12.43512
-8.00514
-3.55144
-1.64097
-7.38160
-9.87425
-8.15698
-10.02694
-7.30951
-6.06571
-8.38232
-9.05605
-9.29893
-6.08404
-7.99279
-8.29361
-6.56135
-9.47220
-9.34739
-9.23724
-11.73735
-10.48481
-11.21445
-7.93807
-12.09931
-11.34332
-10.01419
-14.48454
-10.15364
-17.22225
-16.65526
-17.06993
-15.55715
-12.83914
-11.98736
-17.16662
-13.77335
-17.61418
-20.94953
-14.87372
-15.05762
-14.80382
-18.28250
-17.86507
-14.88572
-19.75194
-13.62553
-10.61477
-14.59490
-14.66249
-14.77830
-17.28131
-17.15818
-24.96885
-23.98274
-24.10017
-17.49107
-12.48404
-13.50752
-18.49333
-11.97641
-7.13469
-13.21185
-9.46713
-14.24154
-7.18056
-8.73525
-7.96624
-10.53845
-10.59259
-10.53593
-6.51209
-5.20318
-0.70270
-8.66810
-12.55539
-16.04118
-10.81067
-8.28373
-15.23154
-7.60647
-7.46372
-10.32345
-11.29254
-11.27063
-8.97453
-9.91047
-14.44525
-11.13347
-14.79653
-14.88913
-15.68441
-6.41454
-11.71554
-8.47421
-9.22807
-10.99971
-15.26586
-12.53908
-8.50414
-6.51183
-3.58611
-11.06597
-6.33262
-8.48742
-3.80805
-6.36350
0.60447
-5.11011
-7.90852
-5.15123
-3.23649
-6.01424
-3.43769
0.06508
-0.43443
3.19203
-3.74346
1.77060
1.13582
-0.81678
-2.10807
-4.28202
-2.92103
-4.38205
-7.64567
-3.02853
3.90372
-2.06547
-4.93524
-3.31782
1.66778
-0.91186
-6.27355
-9.29838
-2.20103
-2.39118
-3.03006
-4.48931
-6.08043
-6.46710
-6.40746
-7.36889
-2.94757
-6.65064
-4.35401
-6.91701
-6.62366
-8.14568
-1.19095
-3.15884
-1.98320
-2.13942
-3.37044
-8.31992
-0.64443
-0.75866
3.76182
-0.34511
-1.14052
-5.62467
-4.01119
-6.49396
-8.18138
-4.85456
-5.87219
-1.22657
-13.17235
-5.27211
-7.90762
-7.91488
-8.31698
-18.16077
-12.87962
-6.89967
-6.65372
-14.23577
-7.29529
-7.73646
-5.54356
-4.91569
-9.56361
-5.67348
-6.94057
-4.46604
-6.65519
-5.24617
-10.93106
-6.45094
-9.54146
-10.03048
-8.33576
-2.51029
-4.56101
-12.47833
-7.54427
-10.75975
-5.92928
-4.58920
-7.45176
-7.35087
-10.02156
-6.22408
-6.87398
-4.11492
-9.39215
-1.97187
-0.50144
-2.80618
3.01178
-3.27874
-3.20276
-0.19962
-0.69853
-1.86415
0.54719
3.51217
0.40972
-1.70245
-4.58342
0.28860
3.66697
-0.27723
-5.13195
2.03847
4.74579
-2.40246
-4.38483
-7.20777
-4.07210
-0.56002
-3.94359
8.00078
-1.47689
-10.08548
-8.89842
-10.41223
-10.62231
-11.43609
-13.12928
-10.74952
-17.68663
-4.49317
-3.93022
-8.45895
-5.18734
-9.91321
-6.96996
-8.62434
-6.65813
-10.43120
-9.87697
-8.20743
-8.14452
-6.31517
-6.34289
-12.78423
-13.09418
-10.32402
-9.62874
-7.55492
-12.19691
-8.28999
-8.56169
-5.49657
-6.90661
-6.07544
-9.75723
-7.71867
-11.02636
-7.13644
-8.48007
-15.76644
-10.84210
-10.91007
-6.48457
-12.26590
-7.78903
-13.13990
-16.07841
-14.57347
-13.21365
-9.90396
-15.20559
-12.11300
-14.67100
-21.30484
-11.83602
-13.11268
-4.99092
-11.80244
-16.17544
-12.27444
-8.94993
-13.12998
-11.81969
-17.05977
-18.28310
-13.08637
-13.97117
-16.09155
-16.92728
-17.67342
-15.63384
-17.13932
-20.21145
-16.76471
-14.47811
-18.78969
-17.55899
-16.06261
-12.88114
-7.32080
-8.29387
-13.40965
-13.03630
-3.73704
-9.00772
-12.02345
-12.74039
-13.45113
-8.34742
-9.87024
-10.27667
-9.10666
-10.13313
-10.23615
-7.04513
-12.06928
-12.93792
-7.15247
-6.39492
4.52209
-3.75489
-12.08580
-10.29782
-11.03834
-9.94590
-9.36417
-10.30870
-20.10788
-17.73275
-16.66424
-11.17633
-12.34057
-18.22066
-16.83190
-7.24691
-6.59239
-3.64686
-4.82121
-1.16014
-7.35916
-5.29655
-2.29738
1.43888
-4.98721
-3.57988
-4.66021
-6.54404
-8.64182
-2.84106
-1.72107
-4.99065
0.28047
-5.00169
-0.41984
-1.46695
-2.98586
-7.52266
-5.62654
-11.17706
-11.87157
-12.86204
-15.30817
-15.99364
-11.90405
-9.68556
-13.08870
-12.56815
-18.82108
-11.67909
-5.41288
-5.69048
-5.29214
-1.58066
-0.86221
-5.73883
-10.44147
-8.70339
-7.16256
-3.15187
-4.27471
-10.55137
-9.83211
-8.11911
-7.14426
-6.29807
-4.71585
-10.30983
-11.75053
-12.83507
-9.01272
-8.91166
-17.94431
-9.72735
-10.98469
-9.88475
-9.65243
-6.33645
-10.90944
-6.89179
-5.99130
-7.32182
-11.10311
-12.29197
-8.26718
-12.56426
-11.10591
-5.25563
-3.27783
-2.68741
-0.49606
-5.93862
-7.90867
-5.21326
-6.06174
-5.67782
-4.12460
-5.65863
-2.90745
-4.58542
-7.23982
-10.28505
-4.25581
-1.71676
-7.92191
-9.97488
-0.01328
-6.83306
1.41085
-3.77924
-9.21456
-8.14626
-5.98635
-5.21136
-4.33342
-2.74802
-2.24322
-2.67909
-5.67172
-7.24819
-7.65326
-3.83409
-5.57747
-6.56245
-9.86795
-7.92786
-4.01106
-2.12081
-5.97358
-6.89813
-9.02626
-7.25982
-9.29856
-9.88932
-13.17337
-14.26811
-4.15948
-7.29842
-4.67958
-6.61894
-4.69379
-10.36007
-0.63443
-2.94341
-1.13471
-4.57417
-4.10623
-3.36979
-9.05473
-11.83745
-8.22134
-12.72217
-15.49041
-15.71857
-14.32947
-12.43577
-9.57036
-13.94780
-11.58980
-6.91169
-7.58435
-0.69580
-4.63830
-9.69525
-11.49504
-11.00141
-9.30384
-8.91391
-13.17470
-13.83239
-15.81272
-15.06315
-9.65289
-6.05708
-12.95609
-11.74497
-7.25378
-10.05496
-14.32593
-13.48554
-17.00653
-10.48846
-10.10214
-9.10950
-5.39254
-17.45470
-4.85608
-9.60120
-17.09286
-12.52051
-1.69969
-6.01990
-6.42003
-5.93713
-11.67732
-7.81762
-9.05948
-1.83829
0.94670
-6.34256
-3.96412
-6.47159
-13.16109
-8.12671
-12.94640
-14.59179
-12.16930
-10.12693
-9.82272
-9.23815
-7.70035
-12.30943
-9.00396
-10.89106
-13.39926
-17.68647
-14.83830
-13.48477
-17.87176
-15.80783
-16.39393
-19.33139
-17.99029
-21.02239
-20.99347
-9.14601
-12.28616
-16.44897
-21.24648
-20.73576
-20.93536
-15.97677
-22.47124
-23.16847
-28.18024
-21.73454
-21.64710
-20.79936
-20.77739
-19.15355
-22.36020
-17.11597
-20.70255
-18.53879
-25.65299
-22.34262
-25.84369
-24.53561
-25.47991
-28.29706
-25.90617
-27.80214
-28.38170
-24.28982
-31.40167
-22.69717
-22.14887
-27.20796
-24.82276
-23.18381
-23.14599
-32.03517
-26.75692
-28.41938
-26.74536
-29.71875
-20.04398
-22.14009
-23.48873
-29.57242
-30.61035
-33.14040
-28.30179
-22.78413
-25.63437
-30.93021
-35.43051
-36.13361
-35.60339
-31.36398
-30.38033
-31.83195
-26.62904
-28.16310
-29.31890
-27.56083
-27.53703
-32.71991
-32.65262
-33.13416
-32.84947
-25.68920
-27.04068
-26.92212
-28.29316
-28.86333
-28.66145
-27.38477
-31.54612
-27.71538
-30.16599
-31.68720
-29.95094
-32.38485
-29.03559
-32.02659
-34.59628
-31.52446
-36.95956
-32.51929
-31.47719
-29.67944
-31.20675
-34.18163
-33.07120
-31.70063
-25.16586
-25.99590
-27.45150
-25.31476
-26.20943
-27.20849
-23.10357
-20.89996
-29.44414
-32.66399
-41.98861
-37.39977
-34.95751
-31.39254
-24.55115
-27.68201
-28.41875
-25.47224
-24.89062
-31.08982
-31.52585
-33.74782
-30.70810
-26.36823
-25.26072
-25.25762
-26.40388
-26.80940
-27.13969
-26.39307
-30.13231
-27.28709
-29.07396
-26.65030
-26.45421
-24.10599
-25.25031
-32.87726
-31.26193
-30.70141
-27.32866
-34.31362
-32.27741
-31.41589
-36.69242
-34.45578
-32.52641
-36.32757
-34.07084
-25.20608
-25.67555
-23.77707
-22.64954
-25.24985
-25.04347
-19.57831
-24.30776
-25.94887
-22.65244
-18.54866
-20.40761
-24.48239
-26.79700
-27.32635
-30.86661
-27.29723
-22.31198
-28.27148
-26.51295
-24.05328
-24.40274
-22.35025
-25.35303
-26.51064
-24.25866
-15.80985
-18.69018
-16.45352
-18.30656
-20.39182
-21.22706
-17.78757
-20.16738
-22.08426
-19.37789
-15.37087
-28.86962
-28.11057
-23.10166
-27.51164
-29.54654
-25.61228
-24.49938
-21.77551
-21.69761
-23.39767
-19.22128
-16.98444
-21.13523
-15.03693
-20.47623
-22.41755
-14.52877
-21.41618
-19.26582
-14.97955
-12.28948
-19.77668
-24.43847
-24.52189
-23.98492
-20.52078
-18.11400
-20.73326
-8.77229
-13.71791
-17.73951
-21.09907
-29.70762
-22.14129
-20.00599
-20.64385
-18.95760
-15.55434
-24.74830
-21.77749
-23.61362
-19.72735
-15.41537
-9.32354
-10.75821
-12.79505
-14.47222
-12.71593
-18.74126
-15.33556
-16.57978
-14.51987
-9.22774
-12.01769
-11.74380
-13.06222
-9.96914
-14.20561
-17.54401
-14.35086
-10.22974
-14.09098
-20.54744
-20.46588
-28.03256
-25.84091
-31.27028
-33.58917
-24.33753
-33.30571
-27.08745
-21.98783
-32.36705
-29.27069
-26.98985
-26.69870
-31.99224
-28.39950
-19.65672
-23.84370
-22.29365
-20.95373
-24.09640
-24.61556
-23.83252
-29.65163
-20.73414
-24.18226
-21.44425
-15.61869
-15.59584
-25.06462
-29.78955
-27.80774
-21.02231
-17.06465
-19.24225
-18.20988
-15.46159
-19.63257
-21.30484
-15.02722
-14.72840
-21.54119
-26.82658
-23.60988
-14.54971
-12.39175
-11.51767
-7.01392
-13.99828
-7.11946
-8.47673
-12.58302
-14.28679
-13.38247
-15.00381
-13.75521
-15.47735
-12.27341
-15.26447
-10.92208
-12.14792
-17.21846
-18.64241
-22.59068
-15.90765
-17.00933
-21.44822
-19.93177
-22.52759
-13.40366
-7.67449
-11.73096
-4.47343
-9.05035
-6.19491
-6.74784
-12.23251
-11.45003
-11.72284
-10.70021
-8.88639
-8.58173
-9.21463
-17.74855
-10.00583
-9.56005
-15.37504
-11.40525
-16.47195
-14.92511
-15.99786
-14.34773
-14.87966
-13.38798
-13.32503
-14.92423
-18.31898
-18.61688
-17.94732
-19.82814
-7.68416
-9.59986
-12.32209
-7.10946
-12.08816
-6.33430
-11.25953
-15.25424
-13.74143
-17.12768
-13.85753
-10.82972
-17.17839
-19.36425
-18.71409
-12.72264
-14.85595
-19.74872
-23.64530
-20.61185
-25.61795
-16.88900
-25.26060
-20.70315
-20.92313
-15.47451
-23.09082
-18.41359
-11.91541
-16.28135
-14.75713
-19.86133
-19.77203
-13.45287
-11.58895
-16.03710
-24.45316
-17.67993
-18.25793
-12.14757
-17.20834
-18.94755
-20.18325
-18.48997
-17.99747
-19.69217
-19.57014
-25.20738
-19.33653
-20.60889
-13.74813
-14.83598
-20.04946
-17.30237
-25.06867
-24.93273
-23.59628
-25.72664
-28.52502
-32.68529
-21.38341
-21.18759
-18.12562
-24.51685
-28.56520
-33.81739
-29.21192
-29.24629
-32.97791
-39.64304
-34.81900
-30.87124
-31.56630
-20.07116
-29.48621
-22.13293
-15.91794
-17.83347
-25.73517
-22.41520
-19.95879
-28.68665
-24.67739
-24.20669
-22.12894
-22.31997
-22.14797
-18.94073
-18.54847
-20.84755
-24.72036
-25.32411
-23.91217
-21.15390
-22.34659
-20.78802
-16.37277
-19.99769
-22.64285
-18.67079
-21.52796
-26.31007
-23.80314
-21.01155
-20.41190
-19.96475
-13.80765
-18.90544
-28.31829
-20.49917
-22.64715
-21.90070
-18.75601
-18.94957
-21.01989
-20.92988
-15.18769
-17.76220
-14.83037
-14.09363
-15.28815
-13.49514
-13.50838
-18.45148
-16.13626
-15.45309
-18.55236
-20.63811
-12.75745
-14.95293
-17.59359
-20.78802
-19.26693
-23.31444
-21.67965
-22.96548
-24.14467
-23.95157
-22.95924
-24.92784
-22.09362
-12.77419
-11.91382
-12.96871
-15.47236
-24.42490
-22.84742
-22.88249
-15.77044
-13.47247
-21.13336
-18.44795
-21.00941
-23.01354
-21.32128
-25.36644
-30.02147
-28.43425
-26.98517
-29.64580
-37.54137
-41.46151
-38.10807
-34.56281
-29.80427
-31.31328
-31.04191
-35.02380
-36.06217
-38.44807
-30.95995
-35.02718
-33.13754
-33.57187
-36.91971
-35.81509
-36.18700
-42.50720
-41.96653
-39.93936
-38.25084
-39.05185
-35.08077
-33.95129
-37.30499
-40.01800
-32.70153
-41.02970
-36.51383
-38.28975
-35.08137
-40.63638
-39.49421
-45.73360
-48.40471
-42.38117
-45.83221
-36.20106
-35.90991
-45.06328
-42.50425
-39.72515
-37.63323
-38.54971
-37.28718
-48.29239
-41.64902
-36.02312
-36.86704
-36.84043
-32.57736
-36.17050
-36.56918
-44.46142
-32.91052
-33.71685
-34.52209
-30.36327
-33.50864
-37.05370
-34.32427
-31.60277
-28.85060
-30.94814
-28.49662
-36.12251
-32.78515
-25.47547
-29.54455
-32.49054
-32.13981
-34.60949
-32.59351
-36.44034
-35.65706
-43.90953
-43.61219
-40.06936
-34.36805
-32.66834
-30.33104
-35.09435
-39.51129
-37.44949
-28.63866
-27.74866
-28.64048
-35.63940
-33.76900
-37.82221
-27.91341
-20.80763
-30.60500
-28.58318
-25.67510
-32.99259
-23.86465
-23.23588
-16.52320
-20.91632
-19.91063
-23.20145
-20.23387
-26.14171
-26.96019
-18.89799
-16.79974
-22.32456
-27.29508
-27.57660
-15.37610
-27.42260
-26.81752
-28.51142
-30.61431
-26.91849
-37.06689
-37.03563
-30.20555
-24.72450
-21.55042
-20.19486
-28.44915
-38.95883
-42.75010
-38.38564
-26.14536
-25.71657
-29.80675
-25.29545
-27.02930
-28.55622
-24.24357
-16.42923
-19.46321
-23.60830
-23.39243
-22.54691
-18.24164
-20.51066
-14.62734
-17.79914
-19.61506
-16.44950
-25.06201
-22.31128
-15.07717
-18.45626
-12.21313
-8.15023
-16.33188
-19.13466
-16.09615
-14.55531
-25.59168
-26.85568
-18.12496
-17.73663
-16.38664
-14.46878
-15.50787
-20.28011
-20.36551
-18.48480
-16.79997
-20.38251
-22.11829
-16.26919
-18.78146
-22.40121
-19.46291
-16.23607
-12.74404
-11.91497
-11.31019
-9.59210
-14.48511
-11.97736
-10.19475
-14.71140
-3.61289
-7.47160
-14.66570
-11.32044
-13.89261
-18.17476
-12.10144
-11.17818
-8.98048
-7.12843
-5.99729
-3.59679
-3.56474
-9.23184
-13.63458
-13.26833
-3.72763
-3.80921
-5.24578
-4.48805
-8.34939
-20.13072
-14.09048
-11.40756
-12.54086
-13.95062
-9.60000
-11.07737
-17.66949
-13.02568
-6.95474
-8.59018
-4.04629
-14.00948
-9.26755
-8.87326
-8.12644
-13.22572
-8.23938
-3.62248
-1.57250
-6.47834
-11.12076
-12.68167
-7.51472
-15.17682
-4.37989
-10.42027
-18.04768
-16.43604
-11.31418
-13.16539
-11.08269
-8.88662
-5.19041
-6.98005
-5.27935
-12.35870
-9.71592
-4.43478
-0.32540
-9.48113
-7.68658
-5.14467
-8.00232
-9.74166
-5.83606
-11.61785
-9.70584
-2.49267
-5.45317
-5.15711
-3.17831
-0.12256
-13.90569
-7.28600
-11.98309
-9.66106
-8.87416
-10.24749
-5.26981
-6.09347
-9.23368
-4.38413
-9.84476
-10.22340
-13.05434
-11.00090
-18.83082
-16.31252
-15.07038
-21.24077
-18.55348
-21.51691
-16.13363
-11.17495
-18.62513
-21.17794
-13.86075
-10.56830
-22.25694
-19.83957
-15.30451
-18.29584
-25.80787
-23.95187
-23.78537
-25.19135
-24.57177
-21.20282
-21.25170
-24.64537
-21.31963
-25.34419
-25.74285
-25.27176
-23.19591
-19.37484
-25.93156
-22.45399
-30.51820
-24.59827
-24.34807
-21.51230
-26.77891
-30.09352
-31.09015
-25.30050
-26.52276
-26.93910
-26.90925
-23.61405
-24.25823
-22.12523
-21.35668
-22.16348
-28.74045
-20.33112
-21.42842
-22.36166
-22.94828
-22.83501
-17.97513
-20.74669
-31.42241
-31.02909
-26.65027
-21.81237
-29.14256
-28.00189
-18.50586
-19.34557
-18.51241
-25.00398
-20.67602
-31.70906
-27.90389
-30.19625
-27.27182
-26.40801
-27.72194
-22.95862
-26.99631
-34.36262
-35.17386
-34.44976
-28.95139
-17.69605
-20.58155
-17.48188
-13.52757
-18.99105
-17.14036
-20.62517
-14.50486
-11.44922
-12.75343
-13.50650
-11.84218
-12.44309
-11.07916
-14.54802
-11.65731
-13.39725
-11.41049
-15.86143
-11.24047
-16.95856
-10.21648
-11.59855
-8.10392
-8.81069
-7.15187
-12.31817
-19.29841
-13.97575
-11.48117
-6.18860
-7.46202
-9.46670
-13.27697
-8.91284
-9.49855
-13.11488
-4.59548
-11.15298
-9.54351
-18.78991
-19.57949
-16.38217
-8.30115
-9.30027
-13.96572
-4.84226
-4.89439
1.41154
-4.01916
-7.88655
-5.48529
-4.27574
-7.09669
-3.87462
-2.38553
-2.61876
-6.24190
-11.71258
-8.91627
-5.78699
-3.21911
-6.73548
-9.43443
-10.64446
-12.87084
-8.67150
-7.51840
-9.62895
-6.20813
-9.39717
-7.10459
-10.47856
-8.09456
-2.71375
-9.17639
-3.76987
-8.65351
-6.29468
-8.80650
-7.62912
-4.79885
-9.41610
-8.42732
-8.24898
-6.11533
-3.70693
0.24043
-4.37966
-4.88274
-12.62789
-8.46186
-5.81780
-6.91574
-5.19158
-8.39574
-7.84592
-11.33835
-12.06943
-14.75436
-6.82903
-6.31172
-6.51451
-9.08334
-8.15463
-3.14022
-2.34142
-8.28967
-4.78618
-0.25103
-4.43072
-3.90862
-3.13521
-8.38059
-6.86081
-11.46074
-9.09009
-6.32365
-8.39103
-4.19807
-2.63860
-7.37285
-7.50875
-4.88830
-0.69075
-5.60604
-11.82431
-11.23393
-9.34453
-6.43479
-12.81801
-13.83276
-7.73677
-8.19730
-10.42816
-10.89263
-17.45545
-10.26095
-7.58344
-3.60774
-5.79614
-10.92268
-9.91153
-9.61041
-13.93158
-14.32564
-12.27940
-12.78325
-11.02116
-0.42792
-3.36789
-11.16835
-10.78779
-11.51195
-14.23686
-16.29781
-22.92014
-21.80702
-20.05978
-21.97385
-19.13135
-11.90031
-10.48810
-12.51119
-13.63875
-19.04507
-17.42698
-15.78310
-15.50291
-2.31604
2.11983
-4.49589
-8.46151
-8.92963
-5.66652
-12.83809
-9.40976
-8.41959
-7.11632
-8.06703
-10.41342
-11.06039
-15.29621
-20.98576
-21.80068
-22.13606
-27.17918
-24.38797
-15.95698
-13.19053
-8.06585
-10.35243
-11.20638
-13.28143
-8.91605
-5.76895
-8.60364
-8.21354
-3.80600
-3.94321
-9.59718
-6.34731
-6.08887
-10.91629
-1.31797
-3.49009
-8.44646
-12.78105
-7.91095
-3.82722
-2.10379
-2.49068
-5.79752
-2.03280
-4.99144
-0.38353
-5.10915
-16.56032
-17.72481
-12.89740
-9.97373
-10.42260
-13.97419
-4.67354
-2.56521
-5.81872
-5.70555
-5.79986
-3.50451
-7.17607
-11.81874
-9.43616
-8.89685
-16.38852
-11.87814
-13.01623
-19.27861
-20.78024
-15.08014
-11.40739
-13.05343
-11.51915
-9.01857
-2.95869
-5.27016
-14.37641
-12.95507
-8.90668
-14.70651
-14.95934
-14.74282
-15.18097
-17.32494
-15.79472
-12.14704
-15.09881
-9.20023
-13.50111
-9.80043
-10.48347
-13.88710
-7.61038
-10.68718
-4.27479
-14.12402
-16.03876
-15.84619
-12.04527
-7.36746
-6.86061
-7.77181
-7.40215
-13.93156
-17.83263
-21.55025
-14.51189
-11.36474
-18.08512
-17.83886
-20.82234
-7.84804
-6.28653
-9.66135
-10.27628
-15.44344
-11.88503
-11.29259
-10.47386
-16.73900
-13.54813
-9.06706
-7.33110
-13.60873
-7.43073
-9.47640
-13.41792
-15.19812
-18.71284
-17.42115
-18.64745
-15.18126
-13.17494
-13.18866
-12.99702
-12.23700
-12.13351
-10.42693
-16.79397
-15.90604
-15.75089
-13.60028
-14.77163
-13.11742
-12.57360
-14.41510
-18.14000
-15.27495
-11.85668
-12.34573
-8.77890
-12.38984
-16.31848
-11.92718
-5.21858
-5.36917
-9.45235
-13.10162
-6.56127
-8.42899
-17.51555
-26.45598
-21.60449
-21.54699
-13.24379
-5.81560
-5.54680
-10.69107
-15.80098
-11.88551
-11.03327
-13.88688
-13.11738
-17.91155
-13.41895
-15.03613
-15.21278
-14.43922
-12.52330
-10.93391
-9.67157
-13.18596
-15.30186
-15.36441
-15.61500
-12.01412
-13.50115
-7.77133
-12.00799
-7.07194
-11.54764
-3.74336
-5.39043
-5.85115
-9.40234
-3.58452
-6.43440
-3.73824
-3.01179
-11.56787
-3.19209
-13.47779
-9.20019
-14.56608
-9.67890
-4.35947
-4.41920
-11.67434
-10.09456
-2.18561
-4.42710
-9.88146
0.56366
-5.09984
-3.86921
-6.88002
-0.31264
-0.34295
-7.92465
-5.69011
-5.20483
-1.76452
-3.15807
-1.41785
-4.72636
-4.84532
-4.42514
-1.31286
-4.58807
-5.30384
-7.38704
-6.96707
-6.40456
-3.53461
-6.45994
0.46999
-8.98814
-9.14637
-9.80370
-6.51086
-11.11111
-4.86274
-6.12246
-10.20067
-10.72167
-4.35100
-9.92102
-5.01765
-9.60679
-9.76521
-12.33481
-4.99230
-11.49785
-8.22171
-13.87871
-16.61517
-15.78745
-11.85351
-10.12527
-8.68305
-7.81422
-12.85113
-15.86739
-9.63414
-15.40436
-15.19171
-17.55459
-15.87629
-14.34298
-22.16618
-15.58852
-15.18702
-22.43792
-20.98471
-16.87325
-20.34670
-17.51396
-16.62801
-13.46986
-12.14828
-13.99358
-12.26841
-5.78210
-13.91133
-13.72992
-10.62484
-11.59038
-10.86320
-12.03996
-11.87540
-12.40162
-13.06345
-13.68938
-12.93344
-20.63723
-13.70623
-10.23919
-12.76346
-12.56382
-13.04031
-12.05784
-14.44882
-16.86814
-16.11152
-5.99954
-7.89123
-11.07425
-7.84607
-3.56245
-4.61246
0.92929
-0.65020
-0.33395
-5.43935
-4.45650
-0.42350
-1.70708
-6.94719
-6.82457
-5.96333
-5.60564
-4.10430
-3.64569
-0.32249
0.31373
1.43705
2.52550
-0.90782
0.76967
-1.32059
3.39711
-0.94883
-3.31948
1.55313
5.95636
-0.93477
-6.64684
-1.44878
-0.01604
-1.05620
-0.09065
-2.99374
-1.48329
-0.62619
-4.83341
-2.18903
-6.66417
-5.57532
-8.24061
-6.28226
-0.46330
0.35727
-0.38569
-2.48126
-11.25907
-2.31057
-1.17409
-0.14469
-9.38897
-8.35017
-3.42636
-9.85745
-12.10227
-10.16116
-8.43933
-4.19795
0.21351
-7.76090
-9.23841
-8.52740
-10.87254
-9.34576
-7.74489
-11.03546
-7.84616
1.03187
2.64612
2.09804
-1.85116
-3.08156
-6.04116
-8.31563
-8.56712
-9.46808
-13.10362
-11.12018
-9.19759
-6.28457
-8.19560
-11.09628
-8.12777
-3.92933
-4.98926
-2.44093
-9.98906
-9.47733
-6.07582
-12.11107
-9.87893
-4.58081
0.71010
-3.10531
-5.46449
-2.52469
-5.28828
-3.29451
1.06716
-5.87166
-6.96741
-2.10790
-4.56603
-6.90763
-6.07361
-5.14798
-5.98201
-9.73895
-6.19922
-2.77976
0.59298
-5.22565
-3.11235
-0.30059
-1.14793
0.04847
-10.10715
-10.64680
-10.68317
-10.40810
-7.17563
-3.22351
-7.38995
-8.61279
-10.64465
-4.01066
-6.87256
-8.06001
-13.66929
-10.76966
-5.23506
-4.53135
-4.59818
-5.95466
-8.25022
-8.13329
-11.00849
-7.89960
-5.38588
-9.61082
-10.15372
-13.39424
-12.66399
-13.64864
-7.27945
-10.52980
-9.93175
-20.76639
-9.71458
-13.83040
-15.35548
-16.59646
-13.62901
-9.07017
-14.56359
-8.50460
-16.86623
-12.45353
-13.08508
-17.57367
-18.25864
-16.95562
-24.40673
-26.64121
-18.35684
-15.35148
-23.23392
-20.49869
-19.67007
-21.73933
-18.37037
-18.98988
-20.91865
-14.37090
-13.84208
-14.28696
-13.58589
-14.69750
-14.08086
-6.80931
-9.72534
-10.59775
-6.64513
-7.93740
-7.34862
-10.45796
-11.74963
-16.27815
-17.01973
-12.15601
-15.66215
-8.69224
-10.99138
-6.06393
-10.08895
-13.23507
-14.13967
-15.42374
-12.01685
-8.20338
-12.60537
-12.62442
-13.31351
-11.64254
-13.25371
-9.30042
-11.08098
-16.97446
-13.18322
-5.58950
-5.70260
-6.63136
-11.27243
-9.22003
-15.80213
-12.45511
-11.55225
-8.06655
-9.13770
-10.52101
-15.73895
-13.20102
-16.73239
-14.20808
-11.16331
-12.19760
-19.76807
-15.66401