-29.67921
-32.24314
-26.48097
-30.14716
-23.34719
-26.72644
-30.52725
-26.46618
-29.18317
-30.64964
-28.11213
-34.35863
-36.98283
-33.69255
-40.25405
-28.64342
-30.29116
-30.86280
-42.42205
-46.80240
-42.88706
-49.79391
-36.78945
-32.10010
-38.44545
-40.22814
-39.18631
-37.60186
-40.83061
-45.71823
-48.69240
-55.77712
-52.09441
-50.54699
-51.24546
-46.47461
-39.81841
-39.96247
-35.33426
-34.22946
-41.80972
-37.94078
-37.08608
-46.75338
-46.15672
-37.94905
-44.33487
-38.67534
-46.01757
-48.45420
-43.08047
-47.89927
-50.99996
-49.80097
-41.08884
-38.99315
-38.97108
-37.42835
-43.33511
-42.48557
-40.50832
-39.19188
-41.69724
-44.51866
-48.47040
-44.30170
-39.74646
-40.40205
-39.13273
-35.25969
-42.15295
-39.40544
-39.74120
-43.39539
-39.11132
-36.35662
-40.88776
-46.94219
-46.84337
-42.46158
-47.80367
-42.02271
-41.57534
-38.35159
-40.50882
-46.25372
-41.67151
-44.46675
-42.18158
-38.21270
-42.23221
-41.87568
-43.31027
-42.89967
-45.39883
-39.73474
-41.39399
-43.94801
-51.53683
-52.88459
-52.98807
-39.77310
-37.47751
-38.44693
-43.53526
-44.24314
-44.15079
-44.61498
-43.11423
-38.62308
-41.37954
-35.11800
-39.68460
-38.41228
-29.79995
-39.79561
-43.84693
-46.11922
-40.13359
-43.59309
-44.55075
-41.26196
-39.90956
-40.10059
-36.21309
-42.95456
-43.10894
-43.05686
-48.51339
-45.40650
-49.27134
-52.51623
-51.39744
-55.56743
-49.45360
-47.49689
-48.66815
-52.28983
-53.35759
-52.56085
-58.74704
-57.31613
-52.27007
-47.67173
-44.92981
-46.36446
-52.45295
-44.97558
-48.69286
-48.81308
-46.13809
-45.65036
-50.03436
-51.13135
-45.89718
-49.14491
-54.00958
-51.67241
-57.18368
-54.39737
-57.23806
-58.33052
-54.16296
-49.30793
-51.28456
-44.31642
-44.61842
-36.57646
-53.30290
-51.88944
-52.50829
-51.30131
-51.61302
-43.96888
-53.37023
-51.19868
-49.74976
-54.82942
-51.80621
-53.40023
-55.46980
-56.04786
-57.97217
-56.24257
-57.90931
-53.24175
-54.65203
-58.54331
-58.51460
-59.96328
-65.19518
-62.83086
-58.80681
-52.70094
-59.68435
-55.54295
-54.71585
-47.77929
-54.81376
-50.45287
-57.04319
-52.62427
-53.27687
-55.58719
-52.50318
-52.22415
-49.01232
-52.81533
-53.70928
-51.83030
-48.23998
-54.07027
-53.16241
-51.19417
-46.71709
-49.55183
-46.92459
-51.70512
-51.13556
-45.03871
-47.91408
-45.10475
-47.20454
-50.29284
-50.65823
-42.96945
-46.63248
-43.01374
-40.23522
-40.97109
-41.75036
-38.19251
-37.67312
-41.47116
-38.54679
-35.32179
-34.38405
-34.89712
-36.86648
-41.07578
-37.50305
-33.89053
-33.77536
-38.94142
-34.70126
-36.80849
-32.39352
-43.55430
-43.77465
-35.28809
-33.29207
-38.94832
-39.23535
-36.40863
-37.82195
-40.69988
-36.43401
-45.15362
-40.23808
-34.69040
-27.37557
-27.01130
-18.76085
-26.94007
-24.44895
-19.80758
-27.98167
-25.83882
-22.84744
-33.66377
-35.52099
-37.19677
-31.19634
-27.37710
-31.74515
-27.31468
-29.87619
-33.74599
-31.66861
-31.54132
-26.76436
-24.33109
-27.75182
-16.20880
-18.64898
-16.21668
-20.71868
-24.35304
-20.69616
-26.40140
-33.65351
-28.54557
-27.36858
-15.77133
-23.85894
-24.81197
-19.35663
-26.48849
-24.79225
-26.83132
-22.57991
-23.71384
-22.33721
-30.26769
-21.62193
-17.94372
-22.24230
-22.81665
-29.28354
-25.76435
-31.11634
-31.12147
-25.70088
-28.11070
-32.60555
-24.89183
-24.75185
-28.27214
-35.41458
-34.20561
-32.47663
-26.87563
-29.98985
-32.46385
-29.63042
-32.25131
-31.28966
-30.54126
-29.01615
-28.86951
-38.06209
-40.98199
-26.38431
-35.86712
-40.29293
-34.22759
-40.11554
-40.70557
-42.30389
-18.81084
-24.31377
-15.56932
-15.45175
-22.37301
-22.84221
-25.71170
-30.02000
-33.17061
-29.13149
-28.15505
-27.61025
-26.13704
-30.80313
-30.99535
-31.48650
-27.07422
-37.02172
-43.15717
-35.36787
-39.67459
-28.92419
-35.15799
-38.68056
-35.30165
-38.91326
-31.84657
-32.75928
-32.71537
-34.15868
-37.80247
-39.45372
-34.08146
-36.08255
-37.68675
-38.06130
-41.34068
-39.61033
-37.48178
-38.34508
-49.12694
-40.11298
-37.75236
-34.38456
-36.17853
-32.27791
-31.47304
-37.15361
-30.65773
-33.62772
-29.50282
-22.90602
-27.46816
-22.48130
-27.21341
-24.93206
-24.01150
-26.56070
-26.33782
-23.45551
-20.42046
-21.50953
-27.29803
-16.79754
-16.17959
-21.86824
-18.13187
-21.10769
-15.49143
-13.14908
-14.34482
-16.43106
-18.61060
-18.75850
-19.10201
-16.83161
-10.39691
-14.72299
-14.97656
-13.82786
-15.83893
-14.41896
-16.88820
-22.96590
-23.10164
-20.39963
-28.13366
-23.58479
-34.91286
-29.09227
-26.78740
-31.26075
-22.76163
-18.32642
-23.63342
-24.29248
-25.88492
-20.09345
-21.68633
-24.26334
-19.10261
-23.41069
-22.90095
-14.77229
-20.83237
-24.91618
-24.40488
-23.09137
-13.05997
-20.24806
-21.33068
-21.37407
-20.45142
-16.23953
-13.35725
-19.30217
-15.47787
-18.55725
-20.22605
-19.20264
-22.94501
-28.07213
-17.34616
-20.78319
-14.26229
-18.37724
-21.70342
-15.61267
-14.32302
-21.72419
-24.94143
-30.66544
-26.11431
-23.25366
-28.63696
-26.30000
-28.78772
-25.87190
-27.07606
-29.42276
-24.37579
-26.87170
-31.59972
-33.57782
-32.26449
-27.86253
-27.15028
-32.41518
-30.22658
-34.93655
-33.70656
-38.30181
-33.07767
-32.20461
-34.73392
-43.46106
-36.63252
-34.65153
-29.87531
-34.97999
-33.29397
-37.23426
-36.18868
-35.42102
-33.91450
-31.86747
-33.20770
-28.07899
-27.39022
-26.78742
-27.87834
-21.29003
-28.88228
-30.40034
-31.51928
-25.61520
-31.51273
-30.52867
-28.92171
-29.48335
-28.31694
-27.00722
-26.49704
-28.86141
-32.72927
-30.11719
-30.87333
-28.97749
-29.35816
-31.30867
-30.07048
-23.22222
-28.52189
-29.02138
-24.68179
-25.23834
-26.92580
-30.28988
-31.52228
-27.38241
-28.41143
-35.73748
-38.79120
-38.82626
-38.31496
-35.53261
-37.81188
-36.98384
-35.61919
-36.03822
-30.54266
-25.81454
-21.55488
-27.82450
-23.82043
-28.53085
-29.53781
-25.19205
-27.36242
-33.29189
-28.14997
-25.48356
-33.76552
-26.62937
-42.66837
-42.47437
-43.51843
-44.33753
-43.53441
-43.80295
-44.90229
-40.64942
-38.05706
-40.41977
-32.99838
-28.04633
-32.40994
-30.75533
-38.42212
-45.46616
-41.49583
-35.77086
-40.45717
-38.66739
-40.31777
-36.91342
-37.26769
-36.14165
-37.04639
-34.12150
-38.16714
-42.58595
-36.87654
-34.49657
-32.96081
-33.53044
-29.91989
-30.12958
-39.02455
-34.81234
-33.38392
-35.18552
-42.78666
-37.72037
-45.82372
-45.94963
-38.91212
-37.72588
-32.36593
-37.32085
-42.19993
-41.68857
-32.95940
-41.75412
-38.71979
-35.96466
-40.58706
-41.31681
-36.22788
-40.81786
-40.57058
-42.88778
-45.90366
-48.14429
-45.21022
-47.85879
-44.29182
-46.34651
-45.41165
-47.35423
-37.22064
-43.83732
-45.66320
-47.44903
-45.26563
-44.53377
-37.40370
-39.46883
-49.26316
-50.45716
-50.54984
-47.03417
-38.79628
-42.46099
-46.09893
-45.30324
-40.96130
-44.25588
-40.50200
-41.93435
-37.88436
-39.72038
-36.69483
-36.07406
-37.42549
-38.93960
-36.34630
-41.32721
-52.97754
-40.31559
-37.00206
-32.61754
-42.43225
-48.40968
-46.94577
-46.44751
-44.55973
-43.90209
-49.49647
-47.62298
-48.29326
-47.51485
-42.64619
-46.27679
-45.64991
-44.24462
-49.88172
-56.11096
-52.69937
-42.87377
-40.96693
-31.53686
-32.54916
-37.52863
-45.22147
-40.55923
-38.23074
-37.30181
-31.39873
-28.69426
-34.38667
-33.77554
-38.30085
-37.70845
-42.61222
-40.97214
-42.31859
-41.28280
-47.35455
-44.27887
-47.53911
-49.03045
-48.73092
-46.59868
-48.50194
-57.42988
-51.07123
-49.55355
-43.47520
-45.53054
-45.21375
-45.16574
-53.23360
-61.11041
-72.58038
-60.25550
-68.05583
-61.99261
-59.46728
-59.42497
-60.74724
-61.62933
-63.96318
-62.07320
-67.70640
-72.98852
-67.35222
-67.02250
-65.70136
-54.57162
-59.56149
-56.00019
-61.56388
-56.17950
-61.44807
-65.40154
-63.62117
-61.44951
-62.91265
-62.46586
-61.41590
-66.37215
-64.10384
-64.19374
-66.70244
-62.79432
-63.56667
-65.42524
-65.16094
-64.58834
-59.29869
-49.16613
-50.99444
-56.94681
-61.24145
-58.26267
-59.50153
-62.05374
-59.32427
-64.06132
-57.18717
-57.30148
-57.71206
-63.32898
-58.29092
-53.39593
-53.58743
-56.62043
-55.32233
-52.94463
-59.15098
-53.66070
-56.64963
-51.26780
-56.91926
-55.22160
-51.74322
-55.94216
-54.49031
-63.50193
-50.25217
-53.86794
-48.52061
-52.02676
-51.86402
-53.59126
-55.13972
-44.64298
-51.29944
-49.37124
-51.72342
-51.71004
-47.32891
-57.66376
-54.54353
-57.93207
-52.48858
-56.96695
-63.95804
-52.01276
-50.97592
-54.35474
-53.12746
-53.31150
-52.60414
-53.11970
-50.80897
-56.27690
-54.03433
-55.64170
-58.90564
-58.76856
-56.89749
-57.53083
-53.29364
-52.66478
-53.17890
-54.95763
-55.56453
-55.29534
-54.31202
-51.79796
-51.15591
-45.21215
-43.61355
-49.02379
-53.96906
-51.81010
-46.46861
-45.22608
-52.50466
-50.47709
-54.97859
-53.19931
-55.55763
-52.25837
-41.47847
-44.89988
-51.78665
-54.02331
-49.12345
-46.27327
-39.81074
-34.68612
-40.00146
-32.68787
-34.78845
-40.10215
-43.31697
-38.08681
-42.39946
-41.05977
-40.10957
-40.41373
-52.94632
-49.01485
-39.00006
-35.36952
-37.46130
-42.90285
-30.97004
-35.09189
-40.10524
-42.56804
-37.93652
-39.47192
-39.03167
-36.87176
-39.74900
-33.53321
-38.39615
-34.31502
-39.01901
-39.61810
-30.83277
-33.82251
-34.57855
-31.34098
-25.69411
-22.54022
-30.09141
-29.90046
-29.62641
-27.98570
-27.06633
-23.46696
-27.84778
-24.90714
-22.66321
-20.96405
-22.16268
-26.18541
-21.90611
-17.06987
-24.26087
-19.87759
-15.79485
-17.51388
-16.16757
-18.65286
-26.45113
-24.58534
-26.17969
-23.84726
-17.35254
-16.12795
-12.85004
-16.80703
-20.22659
-13.61376
-16.68837
-19.77959
-13.02365
-10.51419
-8.12429
-15.02377
-15.07835
-21.41081
-15.00745
-15.49793
-13.90600
-14.30667
-18.70217
-14.23090
-15.92220
-18.93647
-17.05022
-17.32656
-11.60601
-17.33351
-14.93807
-19.77702
-15.94205
-14.45695
-17.01516
-12.45010
-13.92504
-11.15865
-20.31528
-10.99266
-17.11894
-17.39950
-14.21139
-15.16472
-15.04446
-24.98309
-16.36194
-21.99847
-23.04799
-20.92371
-17.69317
-24.80929
-30.25269
-26.40170
-20.65181
-21.14661
-25.79501
-27.60613
-31.31971
-26.88436
-26.42480
-28.52282
-27.16868
-24.51111
-25.36775
-20.72329
-19.65446
-15.26765
-16.37276
-17.94243
-20.85211
-20.71301
-28.19756
-32.46702
-31.62261
-37.39726
-36.78392
-34.95247
-31.84300
-37.74961
-34.85413
-33.16113
-30.23781
-27.93882
-28.52317
-26.24809
-27.67479
-27.25276
-30.41660
-31.21088
-40.39290
-42.29608
-42.66320
-53.99491
-56.12802
-51.89052
-40.29158
-47.37278
-49.70587
-48.09088
-42.44635
-47.53855
-56.55453
-55.68999
-57.07703
-47.22327
-47.19954
-43.26560
-42.28557
-43.30876
-46.79690
-48.76840
-46.45442
-41.52927
-34.33390
-40.37980
-45.08909
-48.33637
-47.02770
-47.42112
-47.20578
-44.68614
-51.41887
-43.78025
-43.30167
-52.20614
-55.00442
-48.93274
-44.43424
-45.98653
-46.96701
-47.04875
-53.09666
-44.82925
-47.72666
-51.63354
-41.39787
-47.89416
-49.49749
-46.46835
-50.13550
-46.64392
-41.77037
-36.97720
-39.65888
-44.39070
-45.10029
-43.83590
-46.37502
-49.22702
-38.77736
-35.85139
-43.40588
-50.50102
-50.76960
-41.90690
-44.44541
-43.87815
-45.76233
-44.80583
-30.80275
-23.91663
-25.13988
-18.83833
-18.91229
-16.58950
-15.43051
-26.33397
-17.95674
-16.70750
-15.71352
-11.82800
-22.34375
-29.42811
-27.89689
-25.39556
-31.31276
-22.83488
-18.26282
-17.80276
-18.93527
-17.99953
-21.93390
-36.56280
-18.39562
-26.23684
-26.45578
-17.20755
-14.10493
-13.90998
-11.43824
-16.67526
-13.78980
-21.74100
-19.45200
-19.23593
-20.83683
-23.75404
-9.79109
-14.96583
-13.86681
-18.12769
-18.13736
-11.96188
-14.85700
-11.86173
-18.50242
-23.93398
-23.23254
-11.50629
-11.40049
-9.40815
-8.64398
-9.35863
-13.67817
-10.39616
-8.36291
-13.36104
-11.43560
-8.78761
-6.16755
-16.46465
-12.49929
-9.52717
-15.45715
-9.00043
-14.02067
-11.63393
-8.15661
-10.80620
-10.67675
-14.41301
-15.81233
-19.21890
-17.32652
-22.47490
-21.30030
-18.11749
-14.29813
-24.42309
-28.19538
-30.98970
-32.10857
-31.61543
-23.66482
-28.75793
-36.44804
-29.21738
-20.35142
-20.86231
-15.36156
-29.01085
-33.92804
-37.02442
-32.36014
-34.11116
-39.23119
-37.51927
-39.03899
-42.12974
-39.88703
-39.72175
-38.33497
-39.10027
-47.89106
-48.85854
-43.96412
-48.59139
-46.21229
-45.04926
-42.72674
-49.23985
-49.08900
-44.10961
-36.77553
-41.56768
-48.36678
-46.72222
-39.91239
-37.56676
-43.47155
-46.50973
-46.32479
-51.82863
-60.05021
-50.38793
-45.41406
-51.66070
-60.86340
-58.31857
-47.43840
-48.46912
-49.26058
-52.82658
-49.05628
-46.33519
-43.14094
-44.62215
-42.94419
-43.52672
-49.76947
-50.46366
-60.11474
-61.82215
-54.57809
-50.76694
-52.00597
-47.03493
-49.22861
-45.21768
-47.96049
-48.56270
-43.55474
-48.68300
-49.97592
-47.78394
-50.62457
-51.54706
-55.23047
-55.91722
-60.17723
-57.98913
-59.26592
-57.82262
-55.11599
-58.86248
-63.39096
-56.37279
-60.13675
-58.00547
-55.90813
-57.73207
-50.84332
-47.61162
-51.16720
-44.89612
-40.54728
-41.70929
-40.48804
-43.99605
-46.76336
-40.39702
-42.10855
-38.67756
-43.83266
-46.20470
-44.88184
-47.98588
-50.23015
-50.04451
-42.32867
-51.41639
-50.13226
-59.04481
-54.00708
-46.62846
-49.38036
-49.28368
-49.08586
-43.55204
-48.40249
-43.23409
-45.66603
-48.86017
-54.40291
-52.06413
-46.53578
-48.97990
-48.65045
-47.83736
-50.17141
-52.63988
-52.72133
-60.26433
-57.63207
-51.05488
-40.02780
-39.45728
-35.73979
-37.66175
-34.22735
-31.93497
-29.64833
-38.14840
-41.09682
-34.66871
-33.15444
-33.68172
-38.47829
-36.43031
-31.94666
-40.16083
-40.57265
-33.48343
-33.94541
-42.44595
-42.38846
-45.24999
-49.52434
-48.50274
-46.70524
-46.63391
-40.83904
-42.97337
-39.24894
-46.74193
-34.12536
-30.59004
-32.35207
-39.00792
-43.46739
-36.16732
-35.86590
-36.37644
-45.28404
-44.74727
-32.58907
-46.28996
-43.78705
-42.02833
-44.49418
-45.77556
-39.15350
-45.11180
-48.39634
-48.12726
-47.31577
-50.89552
-39.06436
-47.14343
-45.36286
-45.65710
-42.39950
-37.89923
-36.35135
-35.64097
-41.48978
-51.26106
-56.76840
-54.62755
-51.10210
-50.90052
-41.11349
-42.55759
-44.46318
-43.99864
-35.56248
-36.80068
-44.53046
-39.95775
-41.37348
-43.15181
-43.61879
-40.02162
-39.23937
-42.23095
-42.27814
-39.99524
-43.82913
-37.89379
-43.63403
-49.82409
-41.27189
-35.86356
-49.52224
-54.89956
-49.81511
-42.64610
-39.50126
-43.57977
-42.35843
-44.36430
-46.57563
-46.59752
-40.73189
-35.07536
-35.30332
-41.00463
-41.94144
-41.04738
-44.35040
-37.54260
-36.79675
-32.84874
-29.04794
-29.58388
-31.51068
-35.98796
-38.38062
-29.90015
-33.61866
-26.94941
-31.91466
-24.33472
-25.41320
-25.43931
-27.67945
-25.93080
-22.41887
-25.81087
-21.87450
-19.21875
-21.10543
-21.44249
-20.84727
-21.47295
-22.09760
-20.43356
-18.76697
-22.58129
-19.65280
-24.27519
-33.08606
-28.59644
-24.55678
-24.50677
-33.88265
-32.02026
-28.85370
-29.57907
-26.92710
-30.23520
-32.06344
-26.17320
-31.84714
-28.94017
-30.56423
-24.22986
-28.38023
-28.19454
-27.11690
-28.74206
-33.55717
-32.55697
-30.38447
-26.60732
-31.95805
-29.09884
-35.41810
-35.73623
-34.39334
-37.72844
-36.06817
-30.86817
-31.08900
-33.64981
-37.60976
-33.73710
-32.29701
-29.81998
-34.55603
-38.46201
-32.03926
-36.79262
-35.00505
-41.84026
-37.35773
-40.18490
-32.04131
-27.35575
-29.55181
-34.85356
-32.53997
-33.12218
-33.32357
-32.02735
-29.74532
-26.57911
-35.70135
-30.57731
-35.07335
-37.19623
-35.27836
-33.31493
-33.11297
-35.65501
-30.17666
-26.21458
-23.40797
-27.54157
-23.04591
-26.66355
-26.25490
-28.71507
-31.06068
-31.85814
-31.97806
-30.92842
-32.21437
-30.76213
-35.13990
-35.36024
-39.89668
-31.16149
-33.03476
-35.95468
-37.06653
-32.76347
-34.26915
-36.10933
-29.59814
-32.71266
-28.79497
-34.41493
-33.13732
-42.98890
-41.88185
-41.13699
-50.77624
-49.25427
-50.38941
-51.00188
-44.11406
-45.64186
-42.26733
-42.52203
-42.31482
-46.09601
-44.90646
-44.35556
-43.91185
-46.69682
-45.01644
-43.96406
-44.36578
-38.13271
-41.84028
-40.48416
-37.53583
-37.00956
-42.13617
-44.13927
-30.09939
-32.04242
-29.59537
-32.58434
-32.97970
-34.90138
-29.92206
-28.24414
-38.65355
-39.74481
-40.42604
-41.66010
-37.71689
-43.36566
-35.40951
-35.97208
-40.52697
-45.07078
-39.18604
-38.49438
-33.19808
-30.94826
-36.03171
-39.65409
-35.80549
-35.62018
-37.09897
-41.76446
-34.11104
-31.77948
-33.23444
-42.95190
-44.85709
-38.43286
-34.98000
-35.94644
-44.06606
-45.55403
-45.56071
-50.38986
-41.60074
-32.46719
-31.30014
-26.22816
-32.35619
-32.77267
-37.37900
-35.03008
-33.77550
-31.30848
-28.70307
-29.98612
-30.30301
-27.19155
-29.49507
-32.00375
-35.32110
-32.15681
-35.01526
-41.25211
-44.17569
-40.91297
-40.18295
-38.39641
-38.11110
-34.39040
-29.15072
-29.59998
-38.91727
-43.70582
-37.71864
-41.47651
-44.16670
-39.94021
-35.98152
-30.98403
-35.35621
-30.96375
-34.85932
-29.89038
-28.01959
-36.99601
-38.28345
-34.99345
-34.73021
-36.20367
-32.78168
-34.15314
-35.56424
-32.47874
-34.87137
-39.96228
-36.35573
-33.74097
-41.32911
-44.79552
-45.73210
-39.44902
-39.55658
-33.98553
-37.44128
-35.19575
-33.73027
-33.55838
-31.59938
-33.99787
-38.35376
-28.96274
-19.44450
-19.07989
-22.25312
-25.11167
-28.01920
-27.68066
-23.83226
-26.32388
-30.78862
-32.19357
-23.61774
-25.03434
-23.07528
-26.63334
-18.70439
-18.10247
-13.55362
-10.42394
-10.58472
-10.81121
-9.72846
-5.85064
-9.01151
-6.26665
-11.34454
-11.25172
-15.90800
-23.13311
-13.51738
-8.24825
-13.23636
-20.40268
-18.03078
-17.22257
-26.79870
-30.49337
-37.56411
-30.02068
-15.11901
-7.54569
-16.18887
-15.65694
-14.67822
-14.68805
-19.82950
-14.78937
-16.22532
-19.54766
-18.16035
-18.45893
-21.54034
-12.99589
-17.46978
-16.57800
-19.75470
-21.45097
-16.29760
-19.59156
-23.63699
-23.92761
-20.18391
-21.36002
-16.94264
-16.46296
-12.62597
-14.75670
-17.90356
-18.93135
-16.87726
-12.14195
-15.57373
-21.24941
-22.55806
-16.34602
-15.87748
-17.49696
-10.01628
-11.06690
-15.70107
-19.28619
-18.72811
-16.50835
-18.67053
-16.65781
-17.59168
-12.32352
-17.36388
-24.80444
-14.05333
-10.66978
-14.77164
-13.67239
-15.63273
-7.62937
-13.41369
-17.09455
-13.68796
-14.19616
-8.94429
-11.72174
-12.33858
-14.02997
-17.74605
-7.69625
-8.88019
-11.20204
-8.42021
-3.49173
-6.83024
-9.01719
-10.39292
-9.88235
-13.87022
-14.49620
-13.06979
-16.74570
-19.56380
-23.70214
-24.44580
-23.84603
-16.53252
-9.86044
-3.28883
-8.20351
-11.37843
-7.51575
-7.07449
-7.47292
-11.85935
-1.92972
2.01455
-8.01989
-6.33418
-8.34159
-1.93401
-3.29544
-1.92583
-2.21702
-1.37391
-4.86613
-4.29778
-12.53448
-10.05174
-8.23069
-4.86352
-8.99735
-6.70272
-6.41214
-3.20306
-5.81794
-11.10520
-6.81560
-4.93581
-6.49531
-9.11626
-6.06166
-7.25331
-3.45583
2.79710
-7.64122
2.89597
2.86787
2.70366
3.23238
-1.99916
-5.44474
-4.82941
-3.55935
-5.31289
-9.25833
-12.12636
-12.72494
-10.27625
-11.01935
-7.65006
-12.61223
-12.77729
-15.78635
-8.57966
-4.08136
-2.56300
-2.08609
-10.67767
-8.62807
-4.83285
-14.72850
-14.39027
-13.90769
-9.47126
-16.37605
-14.80421
-14.32769
-15.04935
-9.44071
-5.79827
-7.20913
-13.83202
-23.09860
-23.06049
-24.37310
-28.16113
-25.94927
-20.35696
-18.38926
-18.46752
-15.74359
-13.36021
-19.63743
-19.61158
-27.30343
-23.64432
-17.44825
-21.32906
-18.20946
-15.05680
-16.53785
-21.48055
-25.69720
-24.16671
-24.91275
-25.83156
-32.72807
-33.56348
-28.04809
-34.45407
-37.17934
-38.08317
-38.79045
-34.20501
-36.84369
-31.73510
-23.28576
-27.96341
-31.50002
-33.28327
-26.22595
-22.55506
-26.84703
-31.87945
-21.91357
-27.82264
-37.37793
-44.03700
-32.69638
-28.52047
-33.56206
-28.37556
-32.05188
-25.62541
-23.25251
-23.21667
-22.04664
-26.46280
-22.31301
-25.03041
-16.34797
-20.40495
-18.85851
-18.52723
-12.94527
-17.09784
-15.74294
-14.68537
-17.63910
-18.23828
-15.27644
-15.70837
-16.82403
-16.89108
-15.62249
-19.30220
-19.54666
-18.36100
-17.94296
-20.16426
-11.62619
-14.01992
-19.49039
-25.79191
-23.12849
-22.75760
-26.08513
-24.54602
-22.83531
-17.47709
-21.40754
-17.61000
-27.99099
-19.89667
-24.96982
-24.29445
-24.54819
-27.80353
-20.23714
-17.15639
-22.75015
-12.84890
-16.12083
-17.24572
-16.88043
-13.26773
-18.75097
-13.69663
-18.91051
-23.86291
-15.72762
-8.85897
-17.37493
-19.48071
-17.06281
-17.14909
-16.87232
-13.19845
-14.74171
-10.67711
-12.41689
-17.41895
-22.75016
-23.42633
-18.78324
-11.81541
-10.89136
-10.76046
-14.35582
-15.07755
-14.69669
-22.62604
-17.80946
-11.26318
-10.49842
-16.95674
-9.73896
-9.44448
-18.99935
-14.28906
-16.35539
-14.69512
-17.62670
-16.26594
-15.93318
-13.13938
-14.12214
-13.18715
-19.98440
-12.11120
-16.86384
-15.50652
-14.58029
-15.53745
-11.16422
-12.23533
-15.25634
-13.97623
-15.21169
-16.13137
-16.80491
-18.90188
-14.17798
-16.67592
-15.71551
-19.64260
-14.49084
-14.12287
-18.44180
-14.71282
-8.25599
-21.15102
-20.15774
-20.72124
-26.52178
-28.89464
-30.29445
-25.03380
-17.73820
-19.27305
-22.52865
-14.47014
-17.90867
-20.59393
-24.13342
-15.46463
-23.20682
-21.92465
-14.87280
-20.90062
-21.92910
-26.57156
-18.81161
-17.64455
-19.03014
-18.14515
-20.52685
-20.18832
-20.23666
-17.66853
-17.93395
-24.36661
-26.85409
-22.32682
-24.81113
-30.46884
-27.96592
-27.79127
-25.08501
-26.37644
-21.74910
-24.28282
-25.41657
-18.40148
-23.87831
-21.14997
-15.06262
-15.50228
-16.18422
-14.13680
-14.64357
-14.14238
-15.77772
-18.83266
-21.05713
-18.07112
-18.96766
-12.03736
-13.31642
-16.74408
-13.42092
-7.32086
-12.66970
-11.06684
-7.79924
-8.41462
-10.30621
-8.63205
-11.40392
-13.18878
-12.27097
-13.65652
-15.99630
-12.57860
-9.68211
-8.97490
-7.92067
-9.31974
-9.07306
-13.40547
-12.77678
-12.40093
-9.36054
-9.68363
-6.54685
-6.69133
-15.78455
-15.76624
-19.44030
-10.63123
-4.73495
-5.95554
-10.36598
-8.50858
-7.06600
-3.68138
-7.86659
-11.78832
-8.93093
-6.51176
-14.16978
-10.99053
-9.42433
-9.22324
-6.41362
-9.70855
-15.74882
-10.55010
-13.45883
-16.93960
-15.61677
-12.63269
-9.74616
-10.26405
-11.16428
-11.07743
-16.00256
-16.51122
-11.13721
-7.98552
-7.38070
-3.84602
-10.37856
-14.92441
-15.82174
-16.67327
-10.69898
-13.05922
-15.79470
-12.22165
-11.01146
-9.64220
-16.40927
-5.79438
-7.77045
-9.59590
-19.24757
-20.93063
-19.17792
-10.30209
-7.56570
-14.75760
-18.10177
-13.32517
-10.46273
-10.75945
-12.89996
-8.22074
-9.71450
-4.07280
-10.06495
-15.67801
-20.78070
-16.89251
-9.09587
-8.84193
-8.81376
-4.52028
-5.99716
-1.89180
-12.51750
-12.72408
-6.88047
-15.03224
-15.92394
-16.35471
-10.28033
-9.56856
-7.83195
-12.61006
-20.22111
-16.39127
-18.87163
-16.54823
-16.91101
-13.99509
-10.74543
-2.47823
-1.17283
-8.46332
-13.04568
-15.86786
-17.95002
-7.14825
-4.94006
-4.10406
-3.13560
-2.06353
-1.04356
-3.24208
-6.52769
-4.73817
-5.88006
0.11317
0.54397
-3.92420
-4.29663
-10.60437
-7.38556
-7.33071
-5.28250
-8.75978
-2.74469
-6.77582
-9.35578
-8.68930
-7.31505
-4.51716
0.40611
-1.91100
-0.59122
-5.41630
-8.72453
-5.89251
-7.99268
-8.46438
-3.12947
0.42422
-2.08665
-4.53850
-2.61840
8.09722
6.79575
-1.33725
-3.80708
4.94736
2.86457
-3.27131
-2.80157
0.72670
-6.07832
-5.14076
-4.32053
-5.45066
-6.87469
-5.31907
-1.30519
0.31078
-4.40164
-10.60754
-5.42217
-11.32706
-8.39181
-8.70338
-5.92772
-3.89178
-2.81244
-2.31563
-5.24547
-8.86780
-9.98956
-4.91650
-4.66257
-10.13215
-7.25014
-5.89022
-4.56703
-9.32109
-11.00416
-14.12251
-7.60139
-15.03356
-17.03663
-7.20193
-8.66167
-7.68255
-4.05287
-6.04992
-4.86447
-13.85803
-4.86491
-9.07822
-6.39996
-7.86426
-9.39977
-4.09822
-5.32578
-4.63262
-8.31145
-11.38367
-12.32701
-10.35285
-8.27636
-6.17656
-10.25984
-9.41354
-10.87277
-12.26784
-10.90685
-6.91654
-10.63907
-9.42503
-17.77320
-16.72652
-14.31178
-12.21869
-15.64861
-11.14917
-14.08448
-11.52730
-14.53935
-16.40129
-15.27803
-17.00266
-18.92142
-8.74577
-15.29437
-16.68510
-24.31926
-22.26967
-18.13787
-21.04423
-21.70001
-23.52830
-22.85274
-25.03831
-26.10132
-31.09366
-19.80196
-24.29060
-22.76611
-24.19614
-16.74235
-22.76207
-19.78162
-28.13524
-24.14284
-20.55326
-24.76760
-21.32513
-24.77521
-23.06608
-23.81195
-17.64783
-21.36849
-20.09216
-18.03807
-24.24159
-24.47812
-22.49982
-23.86592
-19.69759
-21.09607
-22.40278
-20.71622
-20.47471
-17.94259
-20.63545
-20.67069
-17.44203
-17.54343
-21.40682
-17.58805
-21.19850
-18.34175
-17.83004
-21.26009
-22.18461
-24.54000
-23.86867
-16.20479
-17.85553
-19.83756
-21.70257
-25.63539
-19.62308
-15.69823
-19.83746
-20.12248
-14.40009
-16.65181
-17.14299
-18.51701
-7.55136
-11.31129
-10.66436
-12.71170
-6.60365
-6.26032
-12.66115
-15.48430
-13.75942
-14.36994
-12.79886
-17.76379
-11.43151
-14.65232
-8.92028
-10.80681
-16.94980
-13.04996
-10.68907
-12.44586
-9.70465
-9.24396
-21.84070
-22.44247
-21.24743
-21.01863
-24.26881
-24.26905
-22.85126
-19.18445
-12.09322
-11.83498
-12.52512
-9.35766
-7.10610
-8.37848
-9.95305
-7.85143
-1.34472
-4.68910
-4.13575
-5.27614
-11.87083
-3.53221
-3.06866
-4.17219
-8.16419
-12.36575
-12.57919
-16.35263
-4.99733
-12.31594
-15.40167
-17.34525
-16.35653
-10.39795
-10.13030
-12.70039
-14.43030
-14.98661
-12.77220
-9.86069
-11.53980
-8.32129
-12.94719
-3.88345
-5.22917
-5.22174
-1.54330
-4.24918
-5.33545
-6.85935
-3.95495
-3.95770
-7.50081
-2.63034
-3.62408
-10.56208
-14.60963
-14.15915
-5.50763
-10.71862
-5.80096
-7.54033
-3.11499
-4.59729
-9.43970
-2.76392
-6.62354
-7.69660
-5.26062
-5.42765
-4.41080
-1.25816
-2.51717
-3.17402
-1.55677
-0.07266
-3.88880
4.15780
-2.90101
-3.62621
-6.53050
1.94043
-4.06997
-3.58519
-4.55089
-1.88339
2.29456
1.69350
5.62562
4.27639
-2.14958
0.29050
-2.73442
-3.21486
-0.59716
-6.28040
-7.65261
-2.84317
-0.00024
-3.63004
0.63493
0.25975
0.07414
1.44921
-2.98250
3.03742
-4.19846
-4.76602
-3.33283
-2.89223
-3.58956
3.92484
-2.07425
-4.35573
-5.28738
-1.82574
-5.91944
-1.14791
-4.03938
-4.94910
-3.84091
-6.37590
-6.70550
-5.59776
-5.70747
-0.72099
0.03940
-6.49791
-5.21903
-3.22780
-4.61920
0.46763
-3.89904
-4.37005
-6.19332
-10.52003
-9.65069
-10.15326
-8.79475
-2.50966
-8.88186
-5.88564
-6.23954
-8.30732
-5.77386
-5.73605
-4.08045
-8.53092
-6.05592
-3.12580
-4.01194
-7.09488
-8.13103
-5.50295
-6.66987
-10.20314
-8.23567
-5.10689
-9.16190
-6.23043
-4.63146
-7.17886
-5.82272
-13.72544
-10.45474
-8.00137
-6.44178
-1.54427
-4.80277
-6.54341
-12.22695
-2.66354
-8.20811
-9.80581
-12.61421
-9.03105
-7.30907
-9.86674
-10.37014
-8.31928
-10.84157
-7.16138
-12.62317
-11.25377
-7.47491
-8.05044
-9.21402
-10.88737
-7.98080
-1.90092
-2.05877
-4.03326
-2.61582
-5.24030
-2.19762
-2.24842
2.20020
-1.11062
-5.71235
0.53329
-0.88548
2.32885
-3.35446
-8.96647
-2.99695
-7.03105
-8.39570
-7.23876
-1.49223
-4.18698
1.65068
5.01553
6.65200
-0.02863
1.31251
-1.82005
3.78269
0.50582
-0.84927
1.22372
-4.98227
-3.38921
0.50911
-3.69291
4.91177
-0.40794
-2.16461
-1.20494
-4.34614
-3.35550
3.44980
1.06909
-0.65192
-6.32844
-3.64415
-6.50435
-6.87264
-6.38022
-4.29598
-10.67197
-8.12782
-1.89843
-6.92085
-10.11752
-10.60144
-10.52544
-8.31321
-5.42437
-2.70396
-2.56960
-7.32817
-8.14659
-6.84267
-12.30295
-11.69952
-9.43401
-10.86451
-13.20504
-13.05159
-12.76843
-13.17111
-14.77419
-12.66884
-14.09990
-15.37251
-12.37652
-9.39996
-11.91244
-10.87430
-12.18568
-9.17366
-10.51758
-7.00362
-7.52278
-10.43205
-7.33716
-8.41330
-15.16661
-9.20027
-6.39283
-11.22952
-8.66924
-8.73374
-10.20980
-11.12304
-10.34533
-7.48457
-3.95197
-9.06064
-9.15734
-8.57938
-6.10765
-7.71207
-3.92385
0.43537
-6.55108
-9.35078
-5.94902
-2.07582
-7.92750
-12.63144
-11.72395
-12.88872
-8.86427
-6.64253
-6.35110
-3.72002
-4.07438
-1.74143
-6.60063
-0.87464
-7.00346
-13.72463
-14.84598
-8.65381
-6.63437
-3.78478
-3.91009
-4.66529
-0.50192
-2.05009
-4.05768
-6.97661
-5.19506
-0.34660
-6.89502
-3.73305
-2.91129
-7.75243
-5.28184
-0.74577
-0.63379
-2.33090
-5.83733
-2.17219
-6.69001
-5.53601
-4.15375
-7.97112
-10.54208
-6.93774
-0.70064
-4.35095
-4.10862
-4.47673
-3.59844
-5.19309
-12.25501
-7.58880
-4.25170
-6.79565
-4.84257
0.65661
-10.04131
-7.42920
-4.52825
-9.05470
-8.78108
-10.75133
-3.26584
-8.84518
-16.53470
-12.61071
-11.36562
-5.76255
-3.01870
-11.03081
-13.75030
-11.61144
-6.09920
-10.20298
-8.15458
-6.77257
-6.67988
-9.18081
-3.51761
-6.12822
-6.81906
-0.79495
-2.53552
-4.47490
-4.81727
-3.78651
-5.28313
-3.42139
-6.27787
-3.15385
-7.77012
-9.50012
-7.00101
-0.75437
-7.01681
-4.01367
-6.68073
-6.41656
-4.08591
-1.56999
0.51059
-7.25967
-6.06837
-1.94625
-0.72142
0.66584
-4.40576
-5.08450
-7.81472
-3.11645
-7.09445
-7.32411
-7.35525
-6.72816
-4.13985
-12.85892
-4.92235
-9.22029
-7.98342
-5.96590
-5.16197
-0.89423
-2.72317
-3.47034
-3.48685
-1.50642
-2.63662
-5.34597
-3.77478
-5.18524
-14.78259
-16.48095
-10.42806
-9.85834
-9.04372
-15.14182
-12.75942
-16.12355
-9.49868
-5.06871
-8.79784
-7.79031
-5.34787
-10.36006
-6.63842
-6.32461
-3.41140
-2.76325
-5.94295
-3.38134
-3.04048
-1.07647
-7.46422
-3.30623
1.52868
0.63960
-2.61149
0.05171
1.67512
-3.40104
0.94352
-3.40418
-0.46729
1.79464
-1.69592
3.08511
-0.88507
-0.99642
-2.94564
-7.31373
-8.54517
-9.59350
-12.24891
-10.80940
-17.48759
-8.47892
-6.48450
-3.94437
-8.43738
-9.59980
-0.09196
-6.22927
-2.86760
-3.69428
-5.91618
-5.91423
-2.94839
0.50119
-1.66890
-0.10099
-4.29240
0.46158
7.87324
5.63433
-8.06975
-6.48619
-0.19063
-2.01305
-8.63086
-6.28916
-3.60329
-8.42482
-2.39102
3.73122
-1.57038
-1.09106
-15.87956
-16.98354
-11.25970
-8.41837
-9.85422
-9.95982
-11.51285
-10.08697
-14.15658
-10.10123
-8.01282
-7.72604
-10.31461
-4.91072
-9.63894
-7.07235
-11.21943
-14.24152
-9.28847
-15.45695
-16.25725
-14.95889
-4.87853
-10.42750
-7.13466
-5.77752
-7.50404
-12.45369
-15.87134
-23.64936
-27.69443
-27.19252
-36.40166
-34.36198
-29.56997
-26.55618
-26.01555
-25.99106
-23.20842
-28.90904
-32.08014
-32.15323
-24.15760
-31.28709
-25.35474
-15.20141
-13.94783
-16.81774
-9.84107
-14.12721
-14.42208
-19.84873
-18.10597
-15.20158
-21.60226
-21.22817
-26.47770
-19.88791
-16.42902
-23.66677
-23.19670
-21.84574
-14.99590
-21.05236
-18.91511
-14.72554
-13.85959
-20.45738
-12.91459
-9.80737
-13.70842
-19.62054
-13.88921
-13.70236
-16.45091
-21.23615
-23.04454
-22.68897
-21.58830
-22.46196
-15.57103
-15.14142
-18.89760
-17.03783
-8.26338
-7.86839
-15.59603
-14.42531
-12.93863
-7.96544
-8.40587
-6.76840
-7.86442
-8.89748
-10.81672
-11.66421
-13.37699
-11.80454
-9.32187
-10.73514
-15.93071
-18.03943
-11.70306
-15.34247
-10.11065
-12.76485
-1.93273
-7.69666
-6.27438
-7.65952
-3.27914
-4.41121
-6.24298
-8.22753
-1.45853
-4.70579
-5.65616
-1.39623
-3.30891
-5.08685
-6.27199
-5.65764
-7.15904
-0.02781
-0.77018
-8.46272
-7.51953
-3.10756
-12.92385
-15.54501
-12.05617
-15.27098
-7.27264
-2.36257
-6.70779
-4.94172
-3.87573
-4.81890
-6.22538
-9.69488
-11.97801
-4.30187
-5.12399
0.77915
0.29481
-5.09779
-2.82190
-4.03463
-6.02374
-7.78513
-2.15442
-3.55669
0.00218
2.61047
-3.51492
-1.10715
-0.86538
0.74594
-8.36968
-4.26902
-5.46180
-2.03044
-1.97509
-3.12225
-6.39416
-9.87785
-4.51410
-5.43964
-7.85538
-4.65142
-5.96976
-6.45305
-3.83001
-3.24320
-5.05574
-1.94077
-0.68903