-46.20891
-47.79764
-47.51380
-44.31029
-45.29150
-40.00211
-43.69818
-41.42915
-35.42633
-36.15407
-43.83331
-40.98249
-38.88121
-40.63204
-47.59128
-47.29869
-55.16771
-51.84212
-47.46734
-47.18695
-45.76689
-42.85416
-43.58850
-43.85671
-46.10036
-44.10578
-46.46979
-47.12471
-47.88421
-41.76177
-40.52747
-38.47833
-34.81286
-41.90862
-40.04249
-39.10900
-35.74509
-34.06122
-39.94107
-38.17606
-34.89653
-35.50563
-26.48386
-22.43470
-19.74034
-23.80402
-31.92044
-27.69224
-27.52257
-26.03794
-22.91503
-18.06406
-13.01033
-14.43034
-17.40857
-14.41060
-18.79233
-21.02970
-13.08530
-21.12438
-18.45468
-28.03873
-23.43102
-20.79274
-23.43745
-14.51288
-7.75325
-12.07115
-13.20232
-7.73676
-16.62358
-21.17726
-19.74758
-16.82752
-12.41197
-11.83001
-14.80665
-12.47266
-14.93850
-11.72077
-8.85887
-7.22599
-6.92713
-14.30012
-5.33032
-13.47989
-11.54668
-9.89292
-9.70797
-8.47978
-12.96515
-15.03524
-12.00518
-9.81364
-7.49950
-10.68039
-9.26963
-9.39224
-10.71430
-3.69341
-5.21255
-5.39520
-7.15556
-4.17818
-5.60133
-8.37843
-8.72881
-10.74368
-7.21296
-9.85700
-17.53223
-15.82628
-8.27213
-14.14784
-14.86479
-12.98590
-5.38513
-5.87117
-6.78315
-3.74544
-6.49847
-10.84630
-9.51979
-8.22092
-5.97189
-12.46384
-12.28817
-9.24670
-12.16768
-13.66042
-17.36129
-14.33022
-12.36027
-13.50085
-12.31897
-14.66846
-13.71282
-11.29200
-12.92234
-15.88835
-12.32001
-12.94384
-17.55298
-16.97101
-11.91232
-13.98023
-12.54750
-14.17355
-10.08914
-13.54799
-16.18385
-28.25631
-24.10015
-24.03870
-27.52960
-18.90291
-13.23776
-24.93335
-20.91716
-18.99982
-19.10512
-21.70661
-25.85727
-22.80747
-26.74613
-16.88213
-19.08560
-28.54566
-28.79632
-23.15836
-18.61558
-21.42893
-21.39122
-22.30498
-17.23615
-16.65690
-17.04385
-16.95935
-15.80091
-12.42878
-16.56546
-15.99932
-13.26882
-15.85837
-19.67047
-27.94542
-27.54303
-27.61623
-28.87507
-26.01779
-27.93894
-25.30961
-25.31082
-23.86031
-19.80722
-24.89626
-26.59024
-25.81773
-24.25649
-22.23287
-27.24658
-22.72262
-19.09797
-24.44555
-22.82147
-27.13402
-21.90210
-24.73715
-21.98958
-23.65821
-23.97177
-27.70127
-27.66495
-27.48919
-27.57947
-23.76857
-25.64733
-23.71340
-28.04730
-30.76954
-28.03011
-35.33834
-27.93260
-29.58584
-35.11259
-34.07931
-38.28308
-35.87364
-31.04744
-28.98155
-23.75322
-30.32750
-32.73195
-31.31479
-40.23558
-36.15573
-25.14555
-23.88075
-36.41171
-34.80904
-34.58842
-26.36385
-25.27019
-22.83750
-25.23556
-29.65160
-24.91104
-18.26172
-25.57884
-21.55539
-24.81770
-24.06219
-26.97518
-20.79912
-29.13997
-22.89758
-21.82177
-23.29036
-31.47192
-38.66919
-35.06594
-34.23782
-30.27033
-29.24789
-28.46449
-22.41479
-25.46249
-25.15741
-28.53582
-26.89485
-26.64872
-25.76254
-24.87097
-25.05655
-28.95669
-30.17537
-41.60690
-37.65841
-43.63037
-46.57686
-43.42889
-41.54253
-42.25590
-44.01274
-40.90163
-44.75132
-48.74965
-50.27917
-51.26569
-47.17250
-49.86565
-54.14829
-48.50395
-49.80404
-50.66973
-44.80893
-46.59182
-47.08202
-41.95075
-45.94420
-40.72106
-43.35674
-52.05693
-56.52778
-50.24905
-58.44226
-53.44001
-54.16070
-56.03766
-46.18059
-53.17497
-53.57787
-58.38180
-53.63073
-50.56499
-54.40199
-48.84802
-49.44860
-57.91918
-58.00897
-54.35941
-51.97694
-55.34048
-54.01287
-59.10236
-61.76241
-58.82512
-54.55962
-54.39025
-42.90935
-44.49047
-49.73188
-50.92442
-53.59753
-50.85192
-49.44030
-49.23084
-42.93302
-49.11373
-48.42387
-44.64773
-55.60686
-53.86046
-54.69226
-54.02971
-54.94323
-58.44715
-51.10798
-51.86420
-54.51752
-61.38886
-53.96266
-56.70839
-63.70849
-60.10650
-56.41981
-56.30750
-54.45141
-50.65284
-59.98966
-58.22389
-62.38553
-62.98227
-66.04900
-67.28614
-61.84385
-59.96937
-54.72883
-62.76793
-60.65001
-59.68795
-62.53857
-63.41610
-62.86251
-70.79498
-62.14871
-61.43308
-67.43809
-62.52011
-61.56870
-60.36038
-59.99479
-54.80756
-56.33456
-49.15275
-56.22576
-58.01207
-56.94460
-57.75850
-54.38211
-52.79541
-53.04518
-48.61744
-51.64013
-48.35076
-55.26916
-48.76227
-46.37341
-45.47069
-45.02862
-45.55171
-47.67697
-43.17484
-48.30535
-48.24846
-49.34666
-48.31429
-46.00720
-53.93225
-49.57238
-51.18677
-52.11639
-58.96062
-55.93449
-53.58520
-51.11733
-50.22226
-52.41075
-48.32399
-48.99240
-51.03413
-42.05306
-49.15105
-45.38468
-50.07600
-54.62297
-48.29570
-50.87026
-49.22654
-48.09061
-47.77231
-53.50834
-42.27200
-56.36292
-54.61015
-53.38884
-51.60929
-54.91859
-49.36315
-50.47999
-50.25824
-50.48964
-43.75903
-47.41885
-46.35202
-45.36324
-42.69765
-39.13872
-35.78315
-41.33887
-43.91127
-35.64180
-33.62950
-35.16590
-41.04598
-41.48784
-36.94986
-36.41938
-33.68385
-39.01027
-45.29432
-44.32812
-43.56199
-41.28539
-54.48892
-54.40480
-44.05811
-40.50360
-44.71464
-46.10801
-48.12629
-43.92052
-49.79854
-46.70118
-40.26614
-44.34431
-50.79402
-39.40437
-39.77016
-37.61726
-46.90007
-50.58652
-47.13687
-49.53337
-51.83864
-52.45825
-56.86870
-50.54144
-47.06110
-47.66423
-45.08311
-40.82332
-42.25694
-43.12333
-43.28355
-36.75244
-39.40142
-38.18146
-35.93689
-38.84054
-46.43825
-53.38780
-53.40009
-58.03447
-55.42955
-55.65363
-56.62048
-50.41652
-53.65072
-45.69246
-39.85573
-50.16292
-34.88499
-44.58045
-30.37896
-36.04502
-40.16614
-40.21887
-37.26661
-32.14595
-33.41101
-38.02552
-32.69744
-30.88952
-33.95042
-32.98878
-34.36010
-35.79971
-26.50962
-26.85939
-19.07555
-29.06140
-24.55208
-26.35851
-25.83856
-25.18269
-28.35416
-25.21424
-25.80234
-22.37516
-20.08612
-21.09088
-18.75200
-15.40830
-22.50646
-23.29750
-29.63936
-28.62962
-28.93737
-26.09599
-29.60292
-37.98099
-38.78591
-28.81103
-33.40253
-27.89474
-29.59218
-26.61633
-23.08697
-26.02991
-29.35731
-33.21628
-30.91739
-28.35628
-32.52551
-30.83959
-31.97229
-29.95217
-31.63077
-38.36136
-34.17142
-31.08819
-36.30482
-36.10307
-34.90528
-36.52973
-32.91042
-35.35388
-34.72206
-30.96534
-37.33410
-29.88864
-33.54375
-32.97820
-36.65379
-35.95214
-33.12072
-21.78904
-22.05665
-26.04601
-20.79077
-24.72196
-22.39764
-32.07391
-35.70181
-29.33663
-28.12988
-26.91055
-26.35459
-32.89510
-24.28663
-27.98029
-21.23439
-20.76349
-25.60117
-18.40332
-16.40559
-6.58196
-9.29128
-16.99067
-21.77380
-18.95076
-15.72298
-22.87848
-20.13264
-22.18762
-19.78162
-20.71924
-26.56984
-21.01317
-20.08372
-17.50328
-20.50218
-18.85772
-21.22057
-18.71477
-15.02623
-20.49079
-24.63434
-24.70078
-23.71825
-26.21134
-30.95358
-28.57166
-32.98071
-25.31443
-22.96900
-17.44746
-26.70708
-26.11987
-25.79798
-27.29671
-26.33858
-26.22634
-20.99871
-21.45792
-19.20208
-22.36934
-27.76490
-26.32919
-28.01115
-29.14406
-33.50791
-32.36491
-27.98862
-32.42928
-33.87729
-36.63634
-31.81630
-24.07811
-30.09956
-35.82393
-39.12208
-32.89779
-33.71066
-31.74708
-28.65422
-23.30922
-31.01186
-29.88931
-29.45259
-24.91178
-26.22927
-18.16253
-21.79526
-21.78008
-23.63130
-24.54621
-24.52802
-25.18591
-22.99631
-18.10985
-18.97355
-18.42688
-25.81069
-27.25372
-25.84700
-23.49991
-27.33770
-32.08430
-30.22539
-30.27525
-34.70827
-29.84002
-33.66894
-28.35225
-23.74680
-25.07136
-27.67505
-27.79140
-19.85022
-15.95634
-14.57322
-14.32256
-9.38062
-11.30371
-14.32938
-10.99178
-8.96612
-7.08901
-7.33912
-9.37476
-14.70481
-12.78371
-15.60495
-13.54539
-12.83138
-10.23918
-12.23505
-13.58843
-4.54815
-6.22988
-4.41898
-4.49766
-3.93085
-6.15858
-9.91645
-8.10966
-9.14212
-2.99264
-8.61347
-3.64841
-2.29212
-0.54438
-7.36474
-11.87654
-8.93247
-4.66011
-2.66557
1.99805
-4.00383
-4.34203
-6.12792
-4.35566
2.16864
-6.36346
-7.07931
-5.44394
0.69048
-6.41085
-0.70265
-2.14787
-6.41283
-9.62132
-9.31378
-2.90213
-4.84680
-3.90197
-4.43800
-6.12311
-2.74650
-9.16251
-6.17939
-6.43316
-8.58761
-8.03098
-6.46443
-7.97002
-9.35648
-14.70514
-9.95239
-10.37776
-13.57330
-11.44966
-19.14320
-16.38365
-10.22796
-15.60709
-13.76526
-7.41641
-11.23978
-17.90255
-11.94916
-13.21943
-15.93909
-10.26798
-10.34261
-9.58009
-11.52470
-12.43521
-10.57871
-15.04277
-9.39180
-7.31393
-3.88062
-4.15311
-9.53162
-11.83872
-11.80110
-10.31252
-14.39364
-13.40262
-14.53982
-16.34941
-9.97759
-5.58307
-4.41037
-11.37971
-14.27145
-11.86460
-14.50769
-14.41150
-13.56959
-12.20383
-15.11569
-11.69945
-15.96913
-16.14157
-18.90909
-19.04315
-19.29207
-22.69661
-28.28134
-30.82154
-26.37355
-25.01361
-20.36893
-20.97598
-18.90875
-26.71981
-30.45155
-34.31518
-35.80054
-36.16847
-29.62866
-28.23160
-33.67634
-26.15151
-27.01810
-23.10475
-27.75763
-34.45423
-25.17391
-29.13612
-29.14883
-26.23647
-28.49242
-21.62913
-25.21410
-26.39736
-25.94145
-28.54519
-23.53645
-20.53918
-22.48323
-19.01404
-15.56786
-20.35119
-26.21037
-21.35969
-13.06889
-13.91726
-11.75267
-14.86651
-13.23311
-17.22732
-14.09759
-20.20666
-16.63954
-14.44297
-14.85320
-15.05461
-15.59136
-10.72783
-12.57872
-10.78086
-11.66774
-15.51165
-14.29656
-13.42499
-12.84070
-18.39071
-16.02263
-20.00497
-19.53240
-20.25469
-18.41690
-20.31471
-22.00721
-24.94218
-28.73204
-25.76989
-23.97670
-17.82632
-22.34691
-21.58019
-20.16424
-17.27400
-21.88630
-19.00789
-13.79203
-17.49511
-16.64555
-13.01133
-13.01806
-13.46349
-15.71067
-19.54912
-34.16596
-34.84391
-38.82407
-24.08320
-24.98125
-24.35772
-24.35548
-41.79270
-42.59023
-39.24213
-28.93258
-30.17392
-30.42081
-36.18303
-25.52829
-21.64691
-22.59488
-32.07554
-32.76910
-30.14924
-29.86003
-28.40255
-30.22833
-26.30765
-28.91096
-30.58383
-27.58813
-25.81007
-24.85899
-28.22026
-24.67377
-31.96259
-32.47367
-34.70560
-33.87690
-26.51089
-24.46611
-25.54431
-33.17593
-34.36394
-36.14374
-28.05928
-23.50022
-25.94900
-24.50825
-21.97532
-27.31167
-25.63330
-24.77814
-21.83714
-22.84428
-26.78767
-30.48812
-33.44232
-33.05214
-36.43799
-38.11710
-40.28492
-42.58351
-40.41859
-33.30795
-41.19541
-35.34818
-34.79180
-36.96476
-35.23826
-42.79365
-43.13359
-45.62480
-45.95307
-48.14589
-40.84880
-41.26456
-43.62498
-50.15891
-40.28538
-36.48073
-44.57196
-40.69395
-37.95204
-45.15451
-43.17774
-46.99178
-43.49052
-41.16565
-45.82925
-41.97011
-46.21877
-51.31394
-55.93954
-46.99656
-51.14573
-51.94239
-54.40388
-59.87457
-64.87909
-66.05176
-69.99876
-63.84780
-60.04168
-66.40960
-64.50567
-61.05243
-59.79223
-56.88821
-59.17945
-66.93455
-60.71742
-59.41876
-50.41245
-51.53250
-58.58426
-62.84974
-64.01635
-52.74949
-59.01149
-52.92508
-48.44741
-48.70344
-42.20494
-50.16902
-49.20321
-51.81110
-52.25341
-44.62343
-46.19986
-48.84972
-52.21992
-48.25911
-53.76805
-48.36967
-53.70020
-55.24251
-61.41236
-61.98343
-60.24882
-61.49390
-65.33169
-58.16942
-71.66671
-73.37839
-60.65184
-65.91179
-70.28980
-69.18156
-62.51600
-68.85613
-64.03539
-60.26980
-60.71997
-60.92369
-65.48998
-73.64114
-60.67694
-65.39147
-66.86066
-66.79572
-71.98258
-74.36030
-72.29692
-70.94434
-70.32142
-68.86669
-74.06041
-73.46156
-56.09513
-61.28217
-65.33171
-68.10198
-72.03192
-75.90433
-79.09681
-73.96301
-71.50602
-68.91910
-65.51427
-67.84874
-65.84188
-71.72339
-72.80449
-73.00582
-71.89267
-67.88258
-69.09209
-70.44528
-66.31137
-70.21416
-80.59904
-77.53943
-78.34707
-68.87707
-67.51994
-69.32921
-78.29394
-79.97852
-74.97125
-72.72601
-70.06876
-78.84927
-73.39782
-77.68701
-73.26329
-69.94041
-73.73404
-74.54427
-74.55038
-65.86644
-66.34072
-64.65594
-59.33706
-63.99636
-66.45207
-71.69500
-74.62082
-71.30486
-70.21956
-69.51763
-72.13192
-81.20292
-73.93286
-77.82641
-81.00585
-80.40907
-74.09379
-78.09198
-72.81259
-85.29168
-81.76541
-79.39245
-79.91798
-80.06528
-79.53089
-78.05703
-73.26577
-69.45782
-74.87678
-71.33600
-73.32093
-72.30793
-69.98919
-72.46204
-63.68866
-57.61693
-53.11871
-56.00638
-60.82575
-67.42307
-64.01432
-64.52806
-64.30143
-56.51420
-53.80828
-48.81941
-48.39720
-49.27270
-52.99975
-57.34924
-54.91155
-52.65850
-57.87869
-55.67783
-58.83231
-56.74945
-53.68731
-53.06192
-56.69652
-52.47301
-50.22324
-51.19515
-49.58909
-45.20694
-42.11690
-43.59332
-41.57734
-38.40156
-44.15180
-44.86626
-46.89900
-35.53775
-44.61353
-41.81237
-36.47433
-37.89267
-31.01704
-37.08417
-31.85668
-28.26534
-24.30470
-23.78886
-26.64389
-23.85031
-25.97600
-23.15671
-23.52409
-27.16077
-24.94555
-29.76671
-34.99872
-30.59330
-29.75525
-24.33782
-25.16741
-23.99610
-24.27573
-37.19074
-33.97885
-35.20071
-31.87770
-24.63775
-27.84946
-25.60779
-28.58499
-25.23371
-20.81260
-25.34449
-18.14906
-19.88651
-20.95016
-17.67577
-25.78920
-11.49968
-16.95499
-26.55571
-26.88844
-29.65374
-30.02928
-29.14701
-24.15986
-20.05563
-20.22611
-20.34794
-16.66901
-18.22095
-14.03103
-19.66221
-19.69412
-19.51383
-20.22477
-27.70791
-32.32798
-27.48465
-28.38704
-20.99373
-19.52584
-17.88157
-25.36952
-14.03295
-16.89541
-13.87456
-16.96884
-16.05471
-21.44607
-19.07518
-15.66029
-7.61110
-14.35905
-13.29545
-10.72442
-8.71499
-6.61201
-9.89821
-11.07583
-13.85034
-20.37388
-17.37102
-22.82564
-28.40210
-24.10556
-17.54608
-19.86306
-19.71383
-15.67352
-21.13752
-19.90538
-13.35738
-19.78362
-23.37248
-24.83603
-20.10217
-18.29040
-21.72817
-21.81790
-24.24019
-25.84916
-18.41372
-18.85648
-29.56329
-25.16417
-30.11176
-34.72680
-35.05931
-33.61051
-31.57792
-35.89556
-34.52892
-37.04714
-32.46647
-29.26261
-31.58501
-32.58480
-35.12601
-36.90947
-29.42040
-31.18344
-27.91549
-25.35517
-31.55838
-31.54058
-31.92941
-28.95165
-30.08913
-27.52404
-22.00514
-28.38329
-23.56992
-27.72801
-32.47038
-27.61993
-24.29025
-25.01449
-21.94989
-24.27324
-24.11164
-21.81266
-22.47958
-19.95844
-25.35401
-23.18044
-24.45587
-31.24533
-28.15611
-30.01673
-17.77089
-21.02282
-22.45625
-22.17024
-23.67425
-20.50994
-27.11731
-28.46652
-21.18314
-23.97909
-24.18629
-32.33419
-26.28627
-26.25265
-29.55375
-25.77697
-35.28643
-30.12655
-22.19431
-23.63313
-35.07510
-36.49613
-32.06199
-26.50642
-25.98780
-24.73666
-16.90706
-23.54325
-21.21945
-21.28997
-26.11717
-24.67514
-20.86157
-19.24312
-21.83456
-30.22312
-19.31433
-19.18555
-19.42731
-25.07862
-20.86426
-23.34753
-28.46988
-23.41036
-24.00799
-24.37472
-24.87345
-27.47141
-30.47737
-31.30297
-32.27353
-34.24374
-23.34909
-24.51011
-28.48600
-30.05259
-31.51661
-30.79629
-35.29327
-40.18635
-30.24167
-23.96310
-22.54573
-19.59058
-20.16413
-21.04208
-23.37580
-23.74274
-28.67261
-33.04125
-33.52540
-35.08475
-31.44896
-29.93292
-29.95065
-27.37930
-23.10348
-26.23255
-33.23560
-23.61649
-19.38191
-22.75110
-25.56466
-28.14960
-20.18232
-34.13784
-24.51757
-27.27099
-26.05238
-20.78335
-20.18505
-20.46496
-22.63056
-14.55109
-17.83195
-19.28285
-31.34294
-29.53720
-29.33047
-25.67458
-17.49215
-8.36439
-14.63174
-18.55710
-21.73009
-20.56685
-21.91260
-19.39174
-19.27172
-16.39269
-14.81945
-21.09752
-20.24815
-22.68331
-28.65227
-19.11337
-26.68355
-21.14922
-13.32879
-16.96270
-15.23612
-20.25756
-18.70447
-21.11215
-19.61379
-9.70212
-14.56281
-13.26272
-15.94920
-19.97513
-15.36794
-15.88454
-10.09577
-10.58089
-14.71944
-13.41134
-17.38435
-20.90387
-15.05288
-15.36624
-17.06090
-19.73226
-13.85504
-16.90412
-15.01805
-9.12088
-13.40029
-10.33487
-10.87368
-7.43993
-7.35484
-7.61923
-7.20487
-2.35442
-6.93360
-9.96766
-11.84239
-9.54650
-13.21243
-9.05856
-3.03274
-5.03937
-14.40326
-10.11848
-5.86089
-2.46799
-5.15137
-6.14992
-5.54866
0.18120
-3.81724
-9.57944
-4.78980
-8.39924
-12.17643
-18.28824
-10.45247
-12.69742
-9.48113
-6.65421
-13.65100
-10.13972
-7.40956
-7.16013
-0.07752
-8.76208
-8.05999
-14.68584
-14.75216
-24.19751
-19.87107
-10.98508
-18.33989
-22.05272
-18.51195
-19.09519
-22.44713
-21.90945
-9.77137
-9.70554
-14.76167
-9.64571
-5.60587
-13.84741
-15.28495
-17.12420
-12.02965
-10.78019
-11.39686
-18.49576
-12.40962
-19.64224
-13.26239
-13.74329
-13.40497
-11.40655
-2.19042
-8.87314
-4.29607
-2.64683
-8.97684
-4.59457
-8.65114
-12.17669
-8.41509
-4.05641
-5.00555
-11.85496
-10.89338
-13.53681
-19.86416
-19.25686
-14.29014
-12.74718
-15.95821
-18.97238
-22.06219
-19.71564
-14.78629
-15.35111
-15.56694
-15.07943
-15.28925
-19.74741
-21.67513
-26.37651
-22.73947
-23.38612
-15.06693
-19.46634
-26.76189
-28.08915
-29.35616
-35.05616
-35.37673
-32.31581
-27.98694
-32.86073
-31.27910
-22.44767
-28.46913
-30.58081
-25.42326
-34.06713
-28.60719
-30.06313
-22.87136
-25.85219
-28.91041
-33.56829
-31.52164
-32.84353
-35.05436
-28.26396
-28.54250
-20.57619
-18.93000
-24.23351
-30.97905
-26.92251
-30.38298
-29.64884
-29.40795
-26.81613
-25.33729
-21.55253
-26.25838
-23.15967
-20.73285
-26.99857
-28.86721
-29.32077
-32.41516
-23.41679
-27.37359
-27.54500
-29.61964
-26.39776
-19.84205
-26.18499
-26.99003
-23.75485
-27.25253
-25.24564
-23.76704
-28.68472
-25.23284
-24.37543
-25.07417
-24.60834
-22.46643
-21.05292
-20.25117
-26.18024
-29.66402
-24.80407
-20.87440
-16.33869
-15.60701
-22.66519
-30.68603
-26.39845
-22.75541
-33.06914
-31.70261
-29.99367
-29.52049
-21.08670
-28.13235
-32.23794
-23.90134
-28.29707
-28.57990
-30.67189
-29.01132
-27.31091
-27.10392
-32.72928
-33.85648
-35.04760
-38.70898
-29.79342
-31.11551
-33.77624
-32.07643
-31.22123
-34.33615
-34.02328
-26.78475
-30.16430
-31.55903
-34.31891
-28.45476
-26.53707
-26.83122
-36.37724
-33.68318
-36.00972
-25.56300
-23.54775
-32.46439
-25.64589
-20.62100
-23.82215
-25.35819
-17.50383
-32.60970
-33.96388
-26.80979
-29.15151
-17.99088
-23.71445
-27.55835
-29.57478
-31.52014
-31.11047
-29.44925
-31.44736
-21.60940
-24.18016
-27.22902
-26.04719
-19.98703
-19.54970
-19.70916
-21.08042
-17.00733
-18.67282
-23.14902
-20.59978
-14.76828
-12.05912
-16.45447
-14.14611
-20.25392
-23.02963
-18.41986
-20.70963
-22.77389
-31.24458
-31.58423
-28.14954
-23.59458
-23.50303
-26.02508
-22.43697
-20.26577
-20.60574
-21.31006
-22.24234
-22.87713
-19.44103
-18.25232
-20.88509
-21.90694
-21.92139
-15.88168
-9.89558
-20.87205
-17.17715
-21.24873
-19.93577
-18.41645
-12.01807
-15.32300
-16.93317
-24.48488
-26.07504
-23.42448
-28.80204
-28.81669
-26.70547
-22.60037
-26.22227
-27.22069
-28.25690
-29.32246
-30.84495
-35.23903
-35.69740
-31.94175
-24.56142
-28.99366
-37.84574
-30.13356
-31.81571
-37.05705
-39.06880
-43.82119
-39.88416
-39.07789
-34.28047
-35.85897
-31.51488
-39.20413
-36.48022
-42.89013
-37.51235
-46.13392
-46.35874
-43.22716
-44.86741
-43.83467
-47.35662
-51.99016
-55.58628
-53.37373
-49.14395
-57.17185
-50.93585
-52.24416
-51.69222
-50.75821
-52.26193
-53.27793
-49.90851
-49.12101
-50.97258
-54.60459
-51.03605
-47.43508
-46.19194
-48.90280
-40.92976
-44.55417
-45.12337
-49.42515
-46.48448
-47.53258
-42.08550
-44.36205
-42.51179
-44.43967
-43.63157
-48.40372
-38.43949
-41.72853
-36.24922
-41.54120
-43.49699
-44.31313
-50.42700
-53.75573
-46.34830
-53.35891
-53.92932
-54.78623
-45.27631
-49.89270
-54.36164
-53.01644
-54.55295
-57.30725
-56.52325
-59.10838
-60.09752
-52.15113
-41.76514
-44.23827
-50.49818
-44.69983
-47.34203
-47.61520
-54.21054
-52.25135
-57.46205
-58.04232
-61.51139
-56.51806
-56.32524
-59.86074
-56.62313
-53.20721
-50.85412
-42.21261
-48.92745
-47.24606
-50.42068
-53.36859
-58.26145
-47.10720
-47.00214
-40.94000
-35.69446
-39.38278
-31.08758
-39.34670
-34.50668
-34.24937
-36.32020
-35.29185
-32.55731
-31.00742
-24.40774
-32.04101
-35.92504
-31.59589
-25.34435
-26.80054
-34.99213
-36.36623
-28.96549
-33.73747
-33.06654
-34.00732
-39.16566
-41.50182
-39.76179
-34.36635
-25.44627
-35.94077
-32.66838
-31.32438
-34.79116
-41.37172
-42.44235
-36.32575
-46.30664
-46.22186
-42.03402
-42.04140
-51.30059
-49.79982
-48.62238
-45.81388
-46.46290
-54.68082
-55.37191
-47.19882
-50.58177
-47.69576
-52.36615
-54.30274
-49.35771
-47.86884
-45.56961
-53.07258
-49.20635
-49.45252
-44.57986
-42.61781
-40.75553
-39.32618
-44.17749
-44.28444
-39.33967
-47.51496
-45.75130
-46.62505
-39.35679
-42.97641
-39.44173
-38.28366
-37.64970
-41.65391
-45.62829
-45.16230
-40.60901
-35.89734
-37.43548
-42.41798
-40.75347
-36.72899
-45.73453
-45.07672
-41.51807
-35.86782
-39.36908
-37.21100
-36.76778
-39.94336
-40.23394
-41.43888
-36.51187
-35.02915
-38.10326
-42.42743
-36.41675
-35.65167
-37.37476
-44.09764
-43.04895
-46.97661
-46.06990
-48.73022
-50.97634
-52.67716
-50.27027
-52.27872
-56.09322
-47.71499
-38.17083
-42.86073
-41.84924
-47.59885
-47.74809
-55.23739
-55.25310
-46.18084
-53.39259
-49.78999
-47.84961
-41.10965
-50.10668
-55.10022
-49.67055
-50.42670
-47.09109
-48.47005
-46.47665
-47.74401
-39.17280
-41.00632
-43.62271
-43.84630
-42.55846
-41.13175
-39.06836
-43.98871
-46.48701
-45.58589
-45.16055
-44.91720
-40.95543
-42.34367
-36.07529
-35.60897
-38.11041
-36.75298
-37.62261
-39.84654
-39.04746
-34.28017
-39.63615
-40.97829
-34.94261
-45.24074
-44.72066
-45.38869
-50.47664
-40.86484
-46.49510
-45.41685
-43.85192
-41.37800
-42.26131
-38.84205
-43.92843
-40.77416
-37.70245
-37.59252
-37.73650
-35.19291
-39.61211
-41.69451
-40.94541
-43.54448
-33.86126
-31.78408
-29.17240
-33.59838
-28.29991
-27.48533
-33.97872
-25.16858
-25.60640
-26.55781
-21.73511
-21.98860
-18.07050
-12.96305
-9.21726
-12.41322
-20.94707
-25.33483
-18.49692
-15.80920
-14.79446
-22.22467
-19.57429
-22.22996
-13.87289
-18.95059
-24.83331
-21.96556
-22.65987
-21.58159
-21.51299
-25.79867
-21.15980
-23.87342
-26.81753
-26.50491
-23.81561
-23.07803
-21.63241
-18.97987
-19.55378
-22.37033
-14.40569
-19.10580
-20.09015
-18.75743
-27.12445
-34.11994
-31.46712
-26.47772
-25.31925
-30.73845
-24.60870
-24.42824
-29.15040
-21.18068
-29.68225
-32.16977
-23.78018
-29.30027
-28.24650
-27.68690
-33.60906
-33.84231
-45.84825
-40.57561
-34.80850
-33.81620
-31.75401
-27.26696
-31.10282
-31.94173
-33.10320
-30.79533
-33.34431
-36.04217
-38.80933
-40.10954
-35.55862
-42.17504
-42.58935
-44.20803
-43.22650
-44.93021
-32.00968
-34.98324
-35.88906
-41.14697
-38.17026
-37.89762
-39.22479
-40.00131
-35.46448
-34.21181
-34.24840
-34.66025
-35.57422
-40.69025
-36.89005
-34.55897
-34.15385
-32.59385
-34.42046
-39.19420
-40.01166
-32.97152
-39.78100
-44.92379
-51.42180
-51.01598
-52.70681
-56.47615
-55.90260
-55.11287
-47.56125
-54.12945
-55.55629
-57.41623
-52.34184
-53.98279
-45.57996
-46.27746
-51.74564
-50.00978
-51.56636
-48.70073
-58.03453
-52.48146
-57.62944
-52.52582
-53.52844
-55.67254
-51.70831
-53.21336
-56.68594
-61.20872
-64.42943
-56.48768
-49.27601
-47.08463
-57.75835
-65.12066
-59.22739
-59.47019
-53.34043
-54.10383
-47.91024
-48.41079
-49.48878
-42.34149
-44.58040
-39.42589
-42.99600
-42.91156
-48.11818
-48.18349
-40.59555
-47.59927
-41.67387
-41.53477
-37.09822
-40.72886
-43.60655
-46.05379
-49.44253
-54.85267
-51.49425
-58.51503
-57.35419
-52.11117
-49.89756
-49.79987
-51.21951
-53.05440
-51.42963
-48.51787
-51.22542
-54.32235
-57.54692
-55.82377
-55.59852
-49.12670
-54.63179
-58.27179
-55.78941
-51.93228
-62.56039
-56.47400
-56.75444
-57.08615
-61.46118
-64.00139
-60.02761
-66.94110
-62.05511
-61.77249
-61.98729
-58.45356
-55.48843
-51.40773
-50.60577
-56.20578
-52.83106
-49.53421
-45.93249
-48.18182
-56.52674
-66.61930
-63.83065
-56.08557
-57.81527
-49.29623
-44.07263
-44.92348
-40.20347
-34.37991
-41.00891
-56.25204
-51.35061
-50.11062
-46.85233
-47.68240
-43.72161
-46.32238
-47.80874
-46.64531
-46.41101
-43.42431
-43.06870
-42.88178
-40.49248
-42.93639
-36.15234
-37.90953
-33.22127
-29.07617
-30.50749
-30.87884
-35.85172
-37.52209
-34.25984
-27.50451
-31.77217
-31.94604
-32.62886
-34.48564
-33.37689
-33.99913
-34.49295
-37.94610
-32.71998
-29.14418
-35.63302
-41.52271
-24.03744
-19.15859
-19.59459
-19.83176
-18.91110
-12.68847
-23.25718
-17.91861
-18.73308
-22.76524
-15.77567
-13.47299
-19.18973
-20.68459
-20.93858
-18.73379
-21.21485
-18.54226
-13.33912
-11.48452
-13.34785
-16.97358
-12.42231
-12.00572
-15.66869
-14.44206
-16.27366
-18.80650
-31.93463
-32.45380
-28.09303
-23.39089
-16.88093
-23.82311
-20.20197
-16.02512
-23.14509
-25.58309
-20.80554
-30.77782
-38.94673
-34.49688
-30.22772
-33.51945
-35.54747
-34.13731
-32.51752
-28.05126
-24.30937
-32.43838
-29.26722
-19.37200
-17.10859
-22.89962
-22.04330
-18.27743
-18.91035
-25.00100
-17.11564
-17.92197
-19.94755
-23.69092
-24.87958
-26.46938
-26.55382
-33.10140
-30.98221
-32.16764
-32.48425
-50.31129
-47.45387
-45.40802
-38.32616
-47.33369
-54.75937
-43.22536
-34.00784
-34.32817
-35.46155
-43.94468
-36.90434
-40.02121
-39.46922
-40.03702
-35.02118
-38.99220
-45.81389
-44.85784
-47.91061
-47.63467
-49.75798
-47.69043
-44.10819
-38.57627
-44.73268
-49.69425
-44.69715
-44.75512
-36.35267
-35.24394
-32.32240
-28.98195
-33.53683
-32.04242
-34.01192
-39.47849
-48.93628
-48.00002
-41.59629
-40.55227
-39.72330
-37.23127
-36.36398
-27.64827
-23.54795
-26.56624
-22.18611
-22.53482
-26.13328
-27.26875
-27.41946
-28.04966
-27.56282
-25.98129
-26.60957
-24.31237
-27.01523
-28.93630
-27.16727
-30.46967
-31.41309
-32.55645
-41.01859
-41.78615
-40.08508
-38.25577
-39.48508
-32.51405
-37.61171
-35.41894
-29.13332
-26.85597
-33.70783
-35.00112
-37.08885
-41.58264
-46.43633
-46.33876
-40.74581
-41.75212
-33.87748
-34.78828
-43.87064
-40.54578
-38.94687
-44.47625
-43.84580
-46.79244
-36.56237
-43.41187
-36.91184
-43.55403
-42.95212
-45.08621
-35.36077
-37.83024
-39.50771
-36.68815
-50.28199
-46.09987
-43.12499
-52.56853
-51.45828
-58.84264
-55.95748
-57.58314
-63.01983
-60.12953
-54.91168
-53.91392
-59.95704
-52.26927
-51.16606
-50.32747
-54.64129
-50.42751
-56.23270
-59.29151
-52.45150
-55.01095
-59.90985
-58.98154
-51.94858
-52.62924
-56.79476
-55.92186
-53.32461
-51.56032
-53.90078
-62.21375
-60.38486
-55.50520
-58.00166
-63.42166
-61.61358
-56.54991
-53.70273
-48.45404
-51.64037
-52.83321
-61.45469
-65.03527
-59.37138
-55.32894
-54.59575
-59.85040
-61.09013
-56.40606
-64.36166
-60.44477
-53.36490
-63.29274
-55.57341
-51.23758
-52.39624
-44.86872
-55.51884
-45.01797
-49.20932
-42.79918
-43.47666
-38.28890
-35.17129
-39.00635
-39.57398
-32.28230
-36.24339
-45.50985
-48.87391
-39.36929
-43.55502
-41.26056
-44.13210
-38.76721
-37.26090
-37.93400
-38.61676
-29.97864
-25.37914
-24.31726
-27.16600
-26.99804
-31.16666
-23.43799
-33.87760
-33.76468
-30.78812
-37.55766
-31.92571
-22.22999
-27.87447
-29.90202
-21.08839
-20.29197
-21.15347
-26.36190
-32.76381
-36.64839
-38.00391
-31.26639
-29.52699
-32.45190
-32.36915
-31.83579
-34.75944
-29.10641
-30.63270
-28.74044
-28.78505
-24.34838
-21.52477
-23.62350
-25.40283
-25.59833
-20.25410
-29.04448
-24.49689
-22.00467
-23.40535
-31.16173
-33.44550
-30.32292
-28.98763
-27.91863
-32.13454
-33.24486
-29.91089
-33.97121
-34.76954
-29.87042
-31.79834
-32.51854
-26.44734
-39.78839
-29.50910
-27.22563
-31.82386
-35.39871
-33.68340
-31.84871
-36.27440
-38.22848
-38.89180
-34.53120
-31.66378
-29.87820
-30.98454
-38.16554
-25.24977
-28.76282
-31.24314
-34.09439
-33.33750
-30.10747
-30.60877
-29.71068
-27.88982
-35.35171
-32.08925
-31.28640
-34.17779
-37.85231
-35.32895
-24.78937
-26.52249
-32.94562
-27.17695
-24.61769
-34.21973
-30.11157
-26.73625
-28.26374
-25.28366
-23.26852
-27.78568
-30.29350
-29.08646
-29.86692
-36.20153
-31.11074
-20.09231
-17.48302
-16.45504
-16.90438
-22.46219
-15.04325
-19.46479
-19.01221
-22.73172
-24.17636
-26.32770
-16.93821
-9.09104
-11.25907
-15.12598
-14.32728
-13.55793
-16.83958
-16.49780
-20.66925
-20.74789
-23.13762
-23.13101
-21.45065
-26.77820
-27.27008
-21.24642
-26.47637
-29.67412
-35.44923
-29.84493
-22.55128
-24.66503
-23.29797
-24.47040
-19.83980
-15.98436
-10.25063
-16.81602
-25.11059
-24.16479
-16.03257
-21.73239
-17.44083
-22.23459
-23.62021
-23.93137
-25.53494
-22.08916
-23.68575
-23.31773
-29.88513
-21.89983
-19.18667
-16.88620
-16.30476
-17.15952
-18.26813
-17.73895
-15.42977
-15.01541
-16.40454
-13.82595
-8.92701
-12.82881
-13.89009
-16.15326
-12.20850
-3.50497
-9.70317
-9.15963
-9.21289
-10.85837
-12.78516
-10.95825
-12.43182
-9.72549
-9.52373
-10.50224
-10.76878
-9.90249
-7.42308
-5.73240
-5.21595
-8.82398
-10.78571
-10.60282
-6.09930
-10.71567
-10.40192
-11.55046
-4.08868
-1.10619
-5.17616
-2.72083
-1.71512
-3.13167
-7.28839
-5.45778
-7.69834
-1.29692
-1.36809
-4.10395
-7.67361
-0.36101
3.81153
-1.72562
-4.37318
-8.02546
-8.82101
-8.70278
-6.29068
-8.12097
-6.89721
-13.15872
-12.38635
-13.09991
-7.78085
-9.93216
-17.46658
-15.25680
-11.39094
-13.54457
-14.71438
-9.60982
-12.25961
-9.46152
-2.61652
-3.77099
-15.49311
-7.42831
-6.68276
-9.92814
-5.02422
-5.26598
-2.81968
-1.92835
-6.68372
-8.78433
-10.63518
-9.91811
-14.96932
-14.17808
-14.54926
-16.54989
-3.46378
-10.29796
-10.96688
-9.04568
-3.77212
-5.33983
-8.31546
-9.67844
-6.92892
-8.82429
-6.92529
-8.62492
-9.23546
-7.60710
-7.95711
-2.24826
-7.31659
-12.78832
-13.38529
-10.19269
-12.41718
-17.34484
-6.43383
-9.66754
-5.10339
1.50401
0.18706
-3.51993
-1.67113
0.38759
-2.88733
-0.90090
3.53110
6.28378
0.90821
0.21176
2.81852
3.49710
1.68649
-3.81080
-4.54814
1.79608
0.25742
-5.88390
1.36172
3.08773
-3.27597
-0.38094
-1.20825
-3.44445
-1.62166
-2.98746
-0.32675
-3.53580
-8.56741
-8.10991
-8.12793
-7.49614
-8.25951
-13.38993
-9.96203
-10.41879
-15.52297
-12.36237
-16.73703
-15.34765
-17.37535
-14.86221
-13.49775
-11.20537
-7.56240
-8.92686
-9.71835
-12.11800
-7.00116
-15.09136
-9.58730
-12.39367
-7.56783
-9.46381
-1.23671
-7.40264
-6.87505
-10.54341
-7.35783
-9.85909
-9.76475
-13.59261
-10.54668
-9.05768
-13.15936
-11.61378
-9.63938
-13.01622
-8.99092
-6.68729
-13.07164
-11.75503
-9.54297
-14.18602
-12.18867
-14.20582
-16.29294
-8.97395
-10.96973
-12.04671
-17.08918
-13.91516
-17.25076
-14.99483
-16.94511
-11.29770
-10.39013
-10.78348
-8.75450
-8.90179
-12.37429
-13.30652
-15.51113
-16.30449
-12.18044
-16.01692
-17.99323
-13.57966
-16.72019
-15.05474
-18.52682
-17.74513
-21.04858
-19.99169
-22.63125
-17.26888
-22.12098
-18.46928
-11.14456
-7.64319
-16.10226
-20.24423
-20.15267
-10.70878
-4.25230
-10.10649
-20.75095
-17.55515
-9.42507
-11.86169
-8.95785
-3.24091
-4.61713
-4.99573
-8.91853
-6.96596
-10.46909
-8.31719
-3.21949
-5.67609
-6.72064
-8.51527
-6.63262
-7.65791
-13.18291
-10.98847
-7.79928
-10.93350
-7.87923
-0.39904
-5.84155
-10.96690
-4.84083
-5.13539
-4.31605
-9.44606
-8.30474
-6.66730
-4.79733
-0.33077
-2.39556
-2.51823
-10.01300
-3.53834
-8.88562
-7.18705
-6.45984
-2.45909
-5.69730
-3.52193
2.17788
-4.99822
-1.00135
-3.43572
-5.47973
-10.77824
-6.46746
-7.54180
-6.82446
-2.97413
-2.72401
-2.26892
-1.46002
-3.68369
-3.74224
-7.23168
-6.60937
-5.62601
-7.08830
-3.92742
-0.72398
-5.74541
-1.26336
-0.74350
-3.77183
-5.98752
-4.97208
-6.02380
-10.74035
0.81424
1.60600
-2.64663
-5.81766
-4.72766
-2.85381
-4.75468
-1.11664
-7.48435
-9.82420
-12.66655
-12.09840
-11.85520
-11.23455
-7.36519
-1.98320