-23.41023
-28.65221
-34.45530
-27.12234
-23.69755
-16.14825
-20.83093
-26.74220
-19.87087
-23.10982
-21.51977
-27.17314
-29.15373
-24.51463
-20.69331
-26.15419
-24.51879
-22.18620
-21.23557
-21.62456
-22.95574
-27.87902
-27.18629
-23.17367
-24.29630
-22.25685
-20.81517
-17.13607
-20.42496
-18.89478
-23.82238
-24.87781
-12.07391
-18.71767
-26.47104
-19.58313
-26.64854
-34.19610
-27.43361
-31.35552
-36.47406
-38.33616
-36.01209
-33.90632
-35.13064
-28.90968
-30.50235
-23.75794
-28.33974
-22.96316
-20.50900
-18.84329
-18.94525
-25.59060
-29.31523
-25.63780
-21.59380
-19.06651
-18.41381
-23.37183
-14.68920
-15.81899
-16.64887
-23.23021
-28.05590
-22.14113
-22.99085
-20.48570
-20.97770
-24.49825
-16.91256
-20.96009
-13.42085
-21.57928
-17.76325
-22.36122
-16.73440
-16.38178
-12.66972
-10.02352
-11.61936
-12.04852
-12.91989
-10.97547
-14.63893
-9.67770
-10.20884
-9.27462
-9.45599
-16.01804
-19.03722
-16.99829
-15.16976
-15.18213
-13.59678
-15.07186
-9.15216
-12.45742
-9.67842
-13.17725
-8.81921
-14.28856
-9.83829
-8.12990
-15.22623
-11.64978
-11.14228
-12.57391
-17.60781
-20.94152
-15.19319
-16.61488
-16.62499
-10.45882
-13.25930
-12.57007
-9.64778
-11.18869
-13.28354
-10.39989
-6.48642
-5.63871
-5.11694
-15.45510
-9.68170
-14.06836
-8.47442
-8.07995
-4.53024
-4.07050
-1.76773
-6.60462
1.85306
0.16477
-4.25775
-0.97871
-3.27007
-3.80895
-0.98280
-0.16156
-5.14587
-2.30621
-4.99545
0.69715
-7.93864
-7.56957
-6.18856
-5.41935
-6.64618
-7.35074
-8.15901
-8.25522
-15.80696
-14.46096
-12.87888
-9.77402
-3.83363
-3.46176
0.27784
-1.78484
-5.06442
-9.88412
-5.91762
-7.14037
-6.01209
-3.82406
-4.53900
-4.88509
-5.21740
-9.47144
-8.42177
-2.12306
-0.02381
-4.48125
-0.62382
-11.12833
-10.65518
-3.74639
5.32411
4.99847
-1.73184
-7.50038
-3.35806
-5.38820
0.18100
-5.13667
-14.64935
-9.71414
-5.05415
-10.42813
-15.76747
-10.45289
-8.32820
-6.29741
-11.93953
-8.50377
-9.17757
-3.91278
-7.17195
-11.13095
-8.87311
-4.75641
-5.89997
-9.16172
-2.44803
-3.13291
-0.90995
-7.58103
-13.31258
-4.68549
-0.32605
-2.57824
-5.38845
-7.66432
-7.09666
-4.82819
-1.84835
-1.85321
-5.91484
-1.11639
-4.80904
-6.50525
-5.29563
-4.41567
-2.02106
0.24512
0.22973
4.11316
0.10870
-3.86814
-0.07122
-9.00500
-12.28648
-3.74573
-5.06077
-5.16652
-5.39019
-2.21388
0.31575
-2.38162
0.30532
-5.18620
-3.00132
-5.85773
-10.04598
-4.56617
-7.82635
-8.79976
-13.57883
-3.75826
-11.45606
-6.94502
-4.76454
-3.44135
-10.94292
-9.87388
-1.49304
-7.30017
-2.64457
-7.29809
-7.73129
-5.57454
-7.82101
-10.21281
-9.49619
-5.16470
-4.75795
-4.40008
-7.75671
-5.67610
-1.26084
-5.33023
-3.13132
-7.58025
-9.01545
-5.84261
-5.63668
-3.80199
1.30781
-8.38830
-5.36948
-0.28176
-4.19021
-4.82914
-4.01270
-3.11848
-3.51209
-2.34035
-7.63397
-0.19575
-3.31266
-2.62519
-9.80398
-6.94085
-6.44676
-5.82418
-5.62663
1.19667
2.17207
0.27774
-3.55475
-7.69387
-2.28242
-0.20468
-0.17217
0.23780
-1.35374
-2.52257
0.57847
0.13072
-0.43765
3.91624
-4.45048
3.64802
4.23859
5.29906
4.47578
-2.21359
-4.39914
-6.80347
2.60435
3.29890
2.57396
4.38681
3.30171
2.45102
1.25027
1.11770
-2.04776
-0.22773
-3.61373
-7.58357
-4.93807
-1.04538
-4.51157
-5.31049
-3.49589
-8.80884
-9.62826
-11.42373
-10.83543
-8.25466
-1.78511
-3.57545
-5.62905
-9.90623
-12.85277
-10.32471
-2.40740
-3.40663
-13.29075
-18.19795
-15.89464
-15.68470
-12.14135
-13.23800
-9.43307
-14.65152
-10.01028
-14.34074
-9.53505
-14.80750
-15.56697
-12.37093
-9.34515
-13.20133
-15.27752
-14.33469
-2.37967
-15.67542
-16.09098
-14.78501
-11.53648
-11.41229
-12.65155
-12.59897
-12.35658
-6.95011
-6.27453
-4.94656
-5.83412
-4.02561
-6.10657
-14.15431
-14.82080
-14.64282
-9.99610
-11.21980
-9.97673
-12.82237
-10.02997
-7.41738
-9.40609
-7.35053
-2.39964
-9.64452
-6.01288
-5.60652
-8.09528
-5.39517
-8.61302
-8.95614
-8.68293
0.23710
-8.20978
-8.88666
-13.12620
-6.53925
-7.48488
-9.00099
-9.09389
-7.56570
-11.56489
-7.64353
-5.20220
-5.00426
-6.42688
-6.28266
-4.37791
-3.75412
-4.36155
-3.72031
-7.85767
-2.91758
-9.97744
-8.33962
-5.58032
-10.81376
-9.37749
-5.42489
-1.98611
-6.72583
4.54991
-8.06079
-7.36563
-3.09008
-6.45949
-9.58372
-9.21604
-8.94693
-11.42405
-12.32257
-6.70624
-2.31878
-0.69276
0.36396
-3.54637
2.44426
-7.55681
-7.26036
-7.09576
-9.03846
-4.05176
3.22083
-3.57519
-5.74468
-5.12402
-8.88448
-6.31661
-4.44548
-8.33672
-14.01539
-8.49093
-5.26540
-5.27904
-6.00494
-3.99018
-4.54402
-3.87414
-7.87295
-6.89393
-9.78827
-10.35998
-9.40897
-9.95624
-13.07692
-5.43809
-8.25809
-4.73066
-6.06846
-5.65820
-7.55359
-3.36245
-5.80824
-9.23325
-16.33861
-6.08695
-13.17603
-10.66775
-8.63554
-0.70717
-2.81652
-4.60067
1.18496
-2.28979
-7.11818
-10.32911
-6.16982
-1.74888
-3.11616
-5.25899
-3.93202
-10.89922
-9.73974
-8.19232
-8.19664
-4.95276
-5.47640
-5.48953
-7.76521
-6.57758
-8.14358
-9.32304
-9.71238
-10.05234
-6.44919
-10.65971
-14.56635
-13.82022
-10.68913
-13.17858
-9.44758
-15.39387
-16.24934
-15.86592
-7.72178
-12.80667
-7.36220
-6.66256
-7.18188
-11.37129
-15.24971
-9.06468
-10.46786
-7.06140
-7.86903
-8.06971
-10.70642
-14.85583
-13.50446
-17.15296
-12.38900
-10.66199
-13.35078
-16.57892
-12.49302
-14.75621
-13.79254
-15.58046
-9.45648
-10.05177
-15.48965
-10.06971
-10.09313
-14.62144
-12.79729
-11.21450
-13.12147
-14.41849
-21.72175
-27.13021
-21.61268
-24.16607
-28.02159
-24.33856
-16.59411
-15.82363
-16.97732
-16.30421
-23.17915
-22.51897
-23.50114
-23.97202
-20.94324
-19.31152
-20.51489
-20.62035
-15.98463
-18.41047
-13.70577
-10.74681
-11.67836
-12.83178
-14.05904
-9.52300
-8.10087
-13.86919
-4.62524
-5.87255
-8.92491
-9.26226
-12.23367
-8.98102
-10.81452
-14.61149
-22.04843
-19.70258
-17.38278
-18.56192
-17.42000
-17.93830
-14.81279
-13.94291
-13.82271
-16.80162
-13.57479
-21.87713
-19.32818
-13.16043
-17.18766
-14.99642
-17.87411
-10.53455
-16.16327
-11.89561
-13.39644
-15.58138
-14.20128
-10.91646
-14.67831
-8.99163
-10.09144
-7.50846
-10.51008
-6.09778
-16.01097
-11.53511
-18.42289
-19.19957
-19.29404
-17.91321
-17.85214
-18.48843
-19.43915
-14.29020
-11.19263
-20.76896
-22.99384
-27.84120
-24.20719
-23.81857
-20.59874
-26.64197
-31.40607
-32.93210
-32.05639
-31.09469
-31.45621
-33.24581
-35.35942
-36.22001
-27.50641
-30.84157
-23.88389
-24.47491
-31.10065
-32.35504
-32.72048
-27.63853
-29.58610
-33.21811
-38.19084
-28.72966
-27.98485
-22.86813
-24.14453
-29.01982
-30.83792
-23.05175
-20.35752
-28.22791
-29.12399
-31.11598
-22.55390
-27.13461
-28.83934
-20.99495
-20.76355
-32.91692
-29.68589
-27.84703
-35.09434
-25.76272
-21.45849
-25.59517
-29.42399
-28.91628
-28.18431
-37.12254
-32.61476
-37.11457
-30.48785
-32.20570
-36.45704
-29.43892
-29.27019
-25.56236
-25.24686
-20.51534
-25.11809
-20.40778
-23.60947
-28.70079
-28.63638
-31.65460
-25.00149
-30.39733
-32.88009
-34.18504
-29.41268
-23.97501
-29.01313
-20.92952
-23.68373
-22.08061
-19.40087
-18.61036
-14.32129
-27.00241
-25.71955
-30.06077
-23.55857
-19.85443
-22.49069
-20.51365
-24.40068
-18.71783
-19.79950
-25.71036
-27.33745
-24.85453
-22.17694
-12.85134
-10.85588
-9.91151
-11.23619
-4.04196
-4.94941
-3.84436
-8.46300
-7.89735
-11.67977
-11.49994
-9.60783
-4.59305
-4.11332
-10.95807
-6.70602
-8.70134
-9.70048
-13.05854
-14.09410
-3.21344
-7.04349
-13.26350
-7.81349
-0.69228
-3.99441
-5.40861
-9.35688
-2.37834
-7.94698
-4.70024
-3.61702
-1.19073
-11.43462
-1.73455
-6.33735
-4.02200
-6.17122
-8.71383
-9.95617
-4.00806
-5.95477
-7.39198
-4.46166
-3.97026
-10.62520
0.61819
1.14435
-3.41991
-3.81960
-7.71647
-7.84327
-3.55417
-11.75376
-8.44616
1.91165
-4.78099
0.70495
1.88396
0.48267
1.67152
1.54075
-7.20521
-16.04772
-11.80580
-7.23910
-12.39015
-5.58128
-2.70392
-1.57655
-1.07598
-5.43602
-12.65490
-11.87253
-9.58569
-9.48147
-9.45856
-12.55066
-11.13276
-9.78558
-9.90029
-7.17402
-12.76565
-10.68530
-11.97452
-9.81109
-15.23574
-7.43780
-9.60230
-14.04809
-11.35630
-1.76204
-3.06855
-4.43092
-5.83487
-8.71894
-8.09214
-7.38292
-7.37028
-11.97795
-14.75909
-13.53417
-15.01179
-15.32132
-12.59104
-11.45200
-15.25471
-9.01817
-12.44885
-15.36903
-14.74687
-10.59243
-12.74813
-7.75530
-11.44937
-12.91914
-7.90707
-5.75270
-9.87658
-9.72452
-12.88782
-10.91147
-15.30200
-12.45246
-15.06546
-14.15897
-20.36499
-16.73447
-20.00011
-24.42548
-27.21263
-22.88488
-19.90372
-22.89138
-17.87632
-11.94512
-11.95447
-10.20272
-12.52816
-16.63220
-11.01370
-14.03101
-19.70027
-15.23606
-12.53827
-11.06747
-13.80211
-8.50411
-11.54830
-12.74047
-13.36057
-16.77724
-18.51731
-26.59382
-18.86945
-17.91148
-22.26148
-22.14449
-26.25079
-25.00609
-24.51422
-31.03654
-31.45513
-31.39257
-27.70261
-25.61893
-33.04461
-35.94066
-35.66910
-30.34326
-40.28781
-38.03399
-34.91131
-43.72178
-37.13852
-34.73624
-34.49860
-31.98205
-34.69068
-36.43410
-33.87501
-36.36627
-34.60796
-36.62329
-35.88883
-35.09577
-36.64590
-37.44892
-34.77558
-36.01264
-31.99368
-33.48179
-34.22894
-39.38661
-34.95279
-34.97662
-38.29563
-34.49947
-33.53693
-31.26395
-34.49617
-36.36098
-35.52532
-35.18017
-21.94359
-30.75466
-31.72966
-41.19509
-45.86237
-39.42778
-32.34322
-33.64506
-37.43671
-30.02920
-30.15952
-28.62309
-22.37696
-25.08671
-32.25074
-28.86283
-32.24996
-39.05761
-37.09100
-36.73564
-26.99547
-36.29992
-37.88872
-36.86496
-28.96823
-31.31664
-28.68531
-22.80931
-27.28419
-25.42253
-28.83455
-24.93198
-24.71688
-24.01080
-21.00791
-21.08416
-21.04465
-29.76473
-29.67259
-20.14110
-22.23273
-20.83868
-25.08402
-24.44183
-25.74587
-29.53018
-25.61768
-25.67309
-26.45972
-24.75393
-20.57484
-20.10418
-20.46715
-20.58954
-19.50778
-21.31706
-26.53579
-21.20470
-20.55875
-27.65490
-34.47931
-35.47711
-35.85960
-37.99070
-30.71163
-32.85525
-34.46830
-32.06032
-32.34477
-35.98256
-34.24492
-32.28630
-39.36748
-36.33508
-35.58598
-38.35827
-37.86000
-24.34563
-28.41673
-20.64610
-25.76198
-25.41475
-32.07050
-36.00711
-33.62801
-36.54210
-32.91794
-32.58791
-24.88247
-28.54853
-33.28245
-29.41043
-38.38672
-37.15546
-36.84890
-37.21119
-37.71075
-35.99859
-38.08275
-33.42895
-36.89611
-38.88326
-37.68049
-42.71370
-47.64869
-43.98866
-50.68713
-48.43892
-50.55864
-54.61304
-53.06283
-48.28545
-39.16598
-41.82776
-46.83255
-51.88664
-43.38346
-47.18627
-52.37617
-51.65396
-47.83750
-47.49900
-43.84388
-41.46324
-43.90356
-47.59977
-41.59251
-40.75591
-42.86506
-43.20034
-39.75729
-45.31692
-43.46835
-35.68952
-28.59460
-28.87803
-29.84996
-27.57859
-28.32242
-27.09656
-29.57256
-36.49091
-36.69557
-37.25234
-38.93481
-43.44596
-38.34686
-36.57087
-38.69293
-38.09040
-34.13660
-38.63352
-36.48100
-37.00947
-42.17736
-46.56963
-45.41751
-42.00060
-39.75503
-44.60526
-37.20237
-33.23770
-38.88897
-36.99525
-35.64811
-38.52879
-36.25861
-36.20342
-40.09751
-38.82269
-33.40204
-38.34000
-34.31418
-32.10691
-35.66864
-36.87608
-38.50079
-26.72247
-27.69413
-30.05800
-30.67375
-32.00259
-36.95982
-37.49842
-36.70540
-37.16955
-35.15215
-42.16347
-34.85939
-32.21536
-29.99075
-31.65810
-32.33485
-29.65529
-33.62708
-34.83489
-31.56029
-28.29609
-30.41549
-27.83485
-27.38478
-31.27580
-30.40195
-28.88986
-31.17768
-29.45122
-26.77994
-26.53259
-31.04435
-31.58516
-30.54910
-30.10064
-27.70769
-23.18284
-23.09193
-24.11839
-30.41331
-30.56255
-32.90049
-37.73915
-37.68512
-39.05309
-37.22740
-36.83740
-36.35013
-34.52605
-34.52151
-32.41355
-21.48089
-21.74044
-27.19300
-29.38602
-22.52850
-21.14029
-19.91384
-18.81194
-21.41696
-26.81350
-19.55802
-26.39421
-23.98182
-25.99903
-14.36089
-17.16848
-14.25805
-16.84099
-17.71657
-15.96717
-16.09867
-15.99080
-13.31949
-12.46817
-11.16072
-14.53136
-7.99877
-12.34592
-19.36327
-15.30281
-11.60032
-16.01326
-8.24222
-8.54377
-15.19785
-10.44612
-7.63617
-7.66979
-7.59645
-7.46135
-13.81080
-10.10770
-8.96065
-8.67735
-8.31351
-14.44281
-10.40261
-4.36898
-13.04636
-10.26234
-14.74513
-12.44939
-9.16823
-6.76955
-5.03734
-10.57630
-8.95173
-13.30477
-11.47371
-13.35935
-15.32196
-17.26105
-16.59323
-22.23102
-10.21374
-10.84379
-8.56818
-7.38971
-9.91954
-7.91036
-7.27390
-9.98531
-14.19446
-12.89223
-16.25094
-13.44482
-15.19600
-10.03989
-18.10449
-15.74480
-15.43906
-14.87981
-15.83204
-7.19957
-13.91994
-15.54925
-18.55983
-20.95309
-22.00934
-24.20070
-18.26543
-25.96488
-22.97564
-20.26550
-15.97580
-18.70805
-13.41000
-14.44232
-11.45985
-12.92395
-15.01002
-8.92446
-7.75437
-6.13892
-7.03886
-10.59626
-18.94915
-11.70524
-14.06911
-10.60193
-14.25884
-14.50816
-15.26036
-12.94223
-12.04337
-6.56650
-12.36975
-13.87787
-23.98778
-19.32207
-21.43971
-21.12984
-17.76659
-27.02124
-11.05229
-11.05195
-12.48878
-17.63573
-12.09113
-11.24637
-6.99805
-9.34842
-11.56222
-7.74101
-6.63651
-4.45879
-7.07606
-17.54791
-16.30865
-21.25889
-25.19921
-19.34761
-15.39517
-16.64577
-16.22351
-16.50027
-18.57629
-26.68968
-26.09738
-26.93472
-26.10192
-24.45173
-20.45842
-16.93479
-27.80704
-27.09008
-25.83986
-22.88057
-25.16481
-23.60160
-19.38308
-19.11265
-21.11635
-19.38180
-31.58611
-22.77196
-25.50576
-21.10444
-18.05176
-11.74862
-12.75230
-14.64255
-18.44008
-18.27948
-16.91585
-15.30141
-17.70996
-23.66454
-21.54391
-19.11912
-14.48361
-17.71024
-15.72887
-16.63117
-16.30043
-22.02844
-15.85946
-17.80151
-19.00585
-12.57437
-19.20460
-17.69718
-20.29028
-18.10419
-15.95238
-18.31678
-11.22934
-17.30448
-14.03916
-13.85439
-19.94427
-16.86634
-18.93938
-14.43580
-13.38852
-12.21815
-10.18626
-13.11577
-12.37221
-12.88272
-7.51923
-12.17277
-8.96174
-14.50887
-11.17400
-15.62803
-13.44865
-20.89803
-13.50103
-17.88488
-13.42292
-6.63688
-12.80634
-13.16368
-12.45301
-8.35957
-14.08748
-12.23902
-14.42531
-16.96360
-14.98338
-17.65674
-18.33928
-14.65068
-18.70693
-28.20976
-19.82876
-22.74361
-22.14237
-15.86628
-18.75046
-12.16343
-17.68328
-14.84271
-14.48724
-16.00453
-20.10054
-15.87070
-8.73950
-12.28864
-13.05075
-16.79579
-16.94906
-12.51020
-20.47392
-22.11322
-24.20900
-24.24534
-26.04742
-26.17038
-21.73781
-25.26010
-22.02237
-24.25841
-20.21853
-26.69464
-28.27916
-28.65305
-26.59535
-19.48943
-26.01765
-23.87122
-26.65601
-26.95071
-31.88470
-19.93765
-21.60188
-24.19971
-24.95943
-30.01957
-25.44326
-28.34703
-31.58358
-25.45290
-24.90372
-25.96576
-16.00463
-15.58700
-13.85756
-13.27688
-12.90824
-14.21674
-11.54820
-16.14116
-15.74734
-22.45241
-18.34896
-15.43199
-20.55405
-27.65807
-23.56754
-22.80854
-25.99070
-31.42501
-27.44552
-29.67194
-22.99266
-29.10083
-15.31182
-21.66202
-23.66498
-19.48998
-22.12926
-16.14695
-14.07022
-14.11757
-25.91816
-23.01731
-21.57392
-27.88698
-27.74480
-29.23584
-26.15413
-18.99586
-19.62028
-18.79454
-16.77173
-17.45408
-13.99762
-23.62846
-17.77317
-24.87948
-24.70430
-24.23037
-20.41319
-20.88238
-22.52472
-23.58841
-29.22472
-24.00985
-24.98341
-27.04179
-27.36119
-20.54203
-19.37181
-21.72522
-28.57161
-25.33992
-16.75677
-16.90724
-15.19835
-28.18366
-27.08121
-27.03872
-26.64549
-26.31460
-24.23797
-15.75700
-19.31913
-15.71254
-19.02038
-23.29078
-17.82754
-11.85915
-16.98807
-19.98804
-10.77387
-11.47171
-15.70698
-14.32812
-15.28864
-17.00296
-22.82051
-21.04129
-12.07393
-15.79927
-10.70585
-14.74429
-12.85149
-15.66540
-16.94896
-17.04681
-18.64944
-12.86308
-12.80784
-14.19948
-14.62617
-9.86850
-24.54240
-18.39894
-15.60510
-12.82118
-12.53786
-15.01373
-6.27978
-17.67440
-16.91832
-19.21466
-23.32231
-22.17625
-16.56256
-17.58577
-15.68550
-9.83955
-9.44449
-12.51365
-15.39970
-18.46791
-21.75727
-18.08188
-21.04424
-20.47187
-20.99291
-22.45358
-23.90213
-18.27138
-14.78829
-17.44181
-16.90352
-19.54264
-21.11196
-15.57232
-19.03262
-19.81136
-13.81606
-10.57492
-11.35861
-14.69391
-11.46214
-12.91349
-15.54666
-16.00213
-14.66460
-17.67436
-21.55332
-23.11928
-19.40728
-21.14105
-23.12123
-20.50525
-16.62936
-16.18910
-19.21648
-21.05575
-23.74494
-21.67442
-19.75374
-18.57416
-20.19424
-14.65168
-17.83990
-14.35933
-13.48836
-10.50607
-14.76953
-19.35035
-13.67311
-18.73014
-17.66792
-19.26860
-20.59933
-22.56867
-19.91364
-17.19456
-19.57819
-16.14324
-12.24200
-10.50433
-15.96528
-12.04767
-11.58352
-9.33741
-10.03840
-6.82208
-2.58849
-10.37023
-14.63170
-13.21275
-12.40247
-11.47741
-14.39315
-15.78719
-13.15440
-13.19108
-14.56472
-16.93361
-24.18059
-14.89206
-21.45073
-20.26038
-11.68659
-17.88618
-11.62217
-9.81552
-7.04241
-0.71092
-4.93312
-8.16707
-0.42219
-11.03589
-11.40439
-7.53766
-2.12895
-1.89854
-4.93268
-9.71248
-10.92492
-9.30818
-3.36174
-5.75803
-5.86611
-3.71208
-0.04512
-2.85245
1.72020
-4.36260
-6.36800
-0.67637
6.66138
6.97295
-2.34444
-4.92278
0.01531
-1.17368
-0.88412
0.05361
-5.90964
-2.45322
-3.76314
-2.46267
-5.32624
-12.76845
-7.34051
-0.63437
3.00591
1.09461
-1.66433
-2.60003
-6.35202
-8.51573
-8.02916
-9.42289
-9.51615
-2.99931
0.22252
0.61485
1.16976
-5.57628
-5.20137
-3.16788
-7.84861
-14.10213
-12.74879
-5.51088
-1.46505
-4.90291
-6.40721
-8.05020
-11.77491
-7.60470
-3.94243
-6.56831
-4.14435
-9.60403
-2.38034
-7.64627
-4.33366
-6.54243
-12.41213
-17.44696
-14.36956
-18.10513
-15.92846
-12.36609
-8.99393
-15.45297
-24.65084
-30.55010
-19.26004
-23.36548
-24.48395
-27.38421
-20.16896
-20.76094
-23.49317
-24.52317
-29.28619
-29.37219
-19.42885
-16.98904
-18.38504
-11.31731
-18.44829
-20.30599
-14.15227
-16.65623
-26.27521
-23.08333
-17.76013
-20.34933
-24.97637
-23.45519
-19.21808
-25.57534
-17.12987
-12.56774
-20.77534
-17.13880
-14.88191
-13.21601
-8.63123
-14.10264
-20.21634
-16.30642
-17.26133
-20.09326
-22.30295
-25.70790
-25.25529
-21.35489
-23.29544
-24.82782
-18.43895
-15.94429
-16.90710
-14.61308
-15.28914
-9.42930
-14.17166
-18.84307
-18.48119
-12.22176
-16.87300
-20.89960
-15.22871
-15.56594
-17.60533
-11.89124
-13.72654
-9.71978
-7.16126
-8.38384
-3.76223
-14.08164
-12.70553
-8.00901
-14.04047
-14.63793
-13.22441
-6.54501
-12.97153
-15.44795
-6.21434
-14.64152
-16.96740
-9.36206
-6.11931
-2.58044
-5.35527
-7.99018
-11.46799
-6.83715
-11.55557
-13.03144
-9.38503
-9.89807
-9.13860
-10.55025
-11.33416
-12.47109
-12.39260
-9.73604
-14.59862
-14.03321
-15.31276
-15.72794
-14.91641
-20.29203
-13.23263
-16.15868
-19.19362
-21.73537
-25.43727
-8.39377
-10.31130
-11.97932
-15.24355
-4.90322
-4.21889
-8.48571
-13.39926
-18.41973
-14.67847
-19.97316
-22.37217
-16.21315
-16.94431
-13.95044
-17.14254
-14.81632
-14.72247
-20.67061
-12.97695
-21.26929
-20.75904
-16.74505
-16.67771
-16.46870
-12.26445
-9.60348
-13.51902
-16.01476
-12.49302
-12.44403
-10.70288
-14.09188
-9.71356
-19.56864
-14.72338
-15.45836
-17.96701
-17.43007
-21.55067
-12.96074
-14.24533
-15.12649
-10.69880
-12.52031
-13.60524
-19.10445
-21.69218
-17.32697
-12.24957
-22.05130
-23.49008
-24.73854
-35.50338
-32.52468
-32.55882
-36.01000
-36.45540
-32.00909
-40.20728
-34.65990
-27.46434
-30.52103
-43.03105
-34.70783
-35.76894
-32.29222
-34.35194
-40.87470
-40.10005
-41.67009
-35.97263
-28.70184
-32.52567
-31.19748
-34.28408
-31.66331
-38.49782
-41.18494
-31.06908
-38.89580
-32.97060
-33.91576
-33.73978
-31.81292
-31.33848
-36.99091
-39.58714
-44.01324
-35.74508
-38.92791
-39.39007
-39.61560
-43.70382
-40.48137
-39.24620
-37.77609
-34.69690
-32.00980
-31.91301
-38.09893
-40.34644
-42.01452
-35.48041
-46.63465
-47.92390
-44.97846
-36.20502
-39.13700
-38.45439
-41.93374
-47.94538
-36.32163
-28.13866
-24.36213
-27.17706
-32.05049
-32.45270
-33.98717
-38.65767
-39.37297
-37.80666
-37.64031
-34.29279
-37.00257
-34.04690
-38.16495
-41.30496
-40.75327
-35.63731
-40.88340
-39.10225
-42.15301
-39.67645
-43.11412
-43.19474
-43.18410
-39.86018
-39.03575
-34.39951
-37.13415
-33.19761
-42.30829
-41.57804
-42.22576
-43.88450
-40.33030
-40.61181
-34.62924
-26.03937
-26.86042
-24.40830
-31.29050
-24.77485
-25.35905
-26.84848
-28.27499
-22.60442
-19.56690
-23.69168
-16.57543
-22.83227
-26.05475
-22.02005
-25.87106
-24.72621
-26.37708
-24.47053
-34.12253
-33.43217
-29.80898
-19.81355
-21.37592
-28.07665
-34.92173
-32.71100
-27.64402
-33.34229
-32.64798
-23.79413
-24.43179
-29.54591
-37.15392
-37.00021
-39.72116
-45.00019
-45.96375
-47.95540
-45.15483
-45.37969
-42.32168
-40.43560
-53.34738
-61.63919
-51.79932
-52.40803
-52.60267
-53.39137
-50.91525
-45.82909
-46.58079
-44.13946
-40.97849
-49.44571
-57.80982
-51.78319
-43.33278
-44.01346
-45.95159
-46.21353
-53.24942
-52.76659
-44.33948
-44.86867
-43.42250
-44.73909
-47.95573
-45.29655
-38.25985
-41.67756
-41.29576
-44.98188
-44.73250
-44.55217
-45.52155
-34.15952
-39.16637
-43.70303
-41.63400
-41.88003
-42.59668
-37.06623
-30.25399
-29.52946
-30.46358
-29.79804
-22.00156
-20.25079
-24.74861
-19.08639
-24.20642
-20.21543
-21.57480
-20.87828
-24.65123
-21.55267
-23.31515
-28.54437
-32.63114
-33.27550
-23.68187
-29.91171
-31.75309
-32.22042
-33.18174
-25.85064
-18.66016
-32.93255
-34.83801
-34.09874
-36.87816
-28.73807
-33.56913
-27.65006
-23.05743
-24.61754
-22.95314
-21.89037
-34.25969
-31.29288
-25.23681
-25.26264
-26.76447
-27.51244
-25.76240
-23.90118
-16.10639
-16.67656
-24.01796
-27.09006
-25.44725
-23.58857
-25.68804
-27.65511
-27.69506
-25.18896
-24.59486
-28.67640
-31.44926
-37.32857
-38.65883
-30.18541
-26.78103
-36.63073
-35.26233
-27.58563
-24.41567
-21.58098
-25.37667
-22.09583
-27.33997
-32.95882
-29.99419
-31.08055
-31.10233
-34.63782
-35.68144
-36.61655
-28.63789
-25.75674
-35.67099
-24.52924
-27.86869
-36.54019
-32.98640
-31.76165
-34.57043
-42.95205
-41.28994
-39.30902
-45.20044
-45.11605
-43.84100
-43.52646
-42.90525
-30.45393
-41.31964
-31.64490
-37.35115
-34.87229
-39.66167
-46.00178
-38.96960
-43.50100
-38.78481
-37.23743
-38.81960
-38.93294
-42.32915
-42.49457
-38.06396
-39.77483
-40.55210
-40.75616
-37.19548
-38.48568
-39.88665
-38.98522
-42.62272
-50.82886
-41.92964
-41.36609
-44.40913
-42.95883
-45.08027
-41.23806
-45.10288
-51.33567
-50.15537
-48.61921
-45.94118
-44.10308
-36.82996
-33.22837
-34.68599
-31.83101
-33.01882
-39.82245
-39.46840
-36.61806
-45.49254
-38.15140
-42.06204
-36.78124
-36.80202
-42.73440
-39.83033
-42.04453
-40.77179
-36.50735
-41.31410
-48.24106
-49.22466
-52.37920
-46.60998
-42.29143
-43.83539
-39.79083
-40.77226
-46.91885
-48.86193
-54.67684
-60.18690
-63.19228
-70.32047
-60.38538
-68.21698
-69.59956
-67.51343
-75.30899
-68.03579
-69.48368
-66.38310
-64.44130
-71.36598
-68.31577
-75.30825
-66.73567
-66.04530
-58.83674
-65.22968
-64.15682
-66.08898
-60.67748
-52.27008
-59.54855
-64.34793
-70.58723
-68.49994
-65.98194
-63.33198
-52.33831
-55.75175
-62.06787
-53.42529
-56.85366
-60.84785
-66.73112
-65.28201
-61.11748
-62.66823
-67.43464
-73.73022
-68.12995
-64.25235
-66.12179
-69.92242
-70.37049
-73.56442
-77.17485
-71.60361
-74.45928
-76.70046
-74.56703
-83.67583
-75.35244
-68.06641
-77.46661
-74.56443
-75.86895
-74.42838
-76.13637
-79.30649
-85.26151
-82.75006
-80.42383
-79.52313
-72.42612
-77.07084
-76.24080
-74.43752
-73.18809
-81.48612
-81.98622
-82.94141
-81.45274
-82.39919
-79.62102
-79.35822
-76.85806
-70.55316
-70.57595
-68.59941
-72.48477
-65.68681
-68.44006
-72.24197
-71.89237
-70.66316
-69.20687
-72.18493
-73.89256
-76.80521
-74.33774
-74.18713
-71.60026
-72.60905
-84.39470
-92.12525
-84.34521
-80.92942
-76.79013
-78.87107
-77.34315
-78.62785
-81.28564
-81.66635
-80.14025
-81.87563
-80.75171
-80.83102
-78.04211
-79.77449
-79.28661
-83.64775
-81.27988
-83.05743
-85.32195
-81.82232
-81.03314
-84.86867
-81.20390
-85.00804
-89.30987
-88.11676
-89.04080
-84.19067
-87.65497
-89.22267
-88.42575
-80.57605
-85.15347
-86.65362
-87.48340
-82.46209
-84.67933
-79.30546
-78.63270
-81.54605
-86.46986
-75.86426
-78.86315
-76.57890
-77.47604
-82.75593
-79.39602
-78.37721
-77.83004
-86.75732
-85.41175
-84.83816
-80.56178
-89.32811
-85.13187
-85.62312
-87.87202
-81.73087
-79.32124
-79.91339
-82.86996
-84.00756
-87.35322
-81.05156
-82.64992
-89.43669
-86.66334
-90.58240
-90.99755
-90.45463
-87.13483
-88.73781
-82.17426
-77.96745
-81.91328
-77.96100
-79.36159
-83.76070
-81.08568
-80.08364
-86.14689
-80.23177
-80.87917
-87.78997
-83.50016
-76.86641
-78.24466
-71.83363
-73.00903
-74.46836
-77.85933
-71.61545
-64.79613
-73.21861
-73.34075
-71.20351
-62.18373
-66.87259
-70.67690
-72.06675
-66.26546
-64.01515
-71.19609
-65.23559
-63.87827
-64.59327
-67.30409
-66.73070
-67.74707
-64.43127
-59.47860
-62.94346
-65.51942
-69.62576
-63.50440
-63.47373
-65.98837
-68.02603
-75.16404
-66.61065
-64.35034
-64.64050
-63.63142
-66.90810
-54.69433
-62.03692
-69.23204
-70.83497
-69.58872
-68.01069
-63.07669
-70.36433
-67.30396
-66.00521
-62.15201
-61.18996
-58.43615
-68.04203
-63.08885
-60.14547
-60.12808
-64.69352
-65.45895
-65.24051
-56.45237
-56.33734
-52.70052
-53.25533
-58.26422
-61.94567
-63.87749
-65.76977
-60.40431
-67.18960
-67.10257
-62.33867
-59.61593
-64.30417
-62.07903
-64.05853
-61.23196
-64.28718
-68.75661
-71.20991
-64.01827
-64.50058
-59.06476
-62.87781
-66.48184
-66.76594
-63.00647
-54.99190
-55.35914
-55.32246
-54.78077
-61.75275
-62.96297
-61.62225
-65.91296
-59.75440
-60.36919
-60.51902
-58.76924
-61.90749
-55.91503
-59.63150
-59.81236
-57.91151
-52.00021
-55.84451
-56.78740
-56.33872
-62.77435
-64.51818
-61.79343
-65.27653
-66.38091
-66.96481
-65.08313
-61.11836
-54.52893
-64.11536
-65.81215
-61.58285
-60.31127
-59.02383
-63.67244
-64.06933
-60.24393
-63.11121
-67.20333
-64.20105
-64.15061
-62.57008
-63.21527
-63.88473
-64.38360
-69.53099
-68.42388
-68.63685
-62.83494
-63.38362
-66.29094
-69.18918
-70.87914
-61.50686
-61.42738
-67.97583
-67.79265
-72.55425
-74.40612
-70.57344
-71.95238
-78.94949
-70.06253
-69.47230
-68.81369
-74.31019
-67.73095
-66.39871
-63.30684
-67.07196
-70.44354
-68.92645
-66.23156
-65.72586
-61.98303
-71.25329
-65.83779
-62.25040
-67.96956
-67.79925
-66.89103
-66.04692
-63.17930
-66.34785
-58.63140
-60.38836
-67.15752
-69.77687
-59.54847
-62.15657
-63.04647
-64.26933
-68.26472
-65.02525
-63.41531
-64.25192
-66.21979
-63.53631
-63.12315
-66.37815
-69.51449
-66.43670
-63.14514
-64.29573
-62.63692
-58.11089
-52.38394
-61.54333
-70.50462
-74.17463
-71.26856
-67.46180
-69.97589
-57.86593
-60.56745
-58.87267
-69.26455
-69.88305
-62.33810
-65.29773
-68.82612
-68.55533
-65.82532
-62.08648
-68.82825
-66.22124
-66.58758
-62.24579
-64.32212
-67.47563
-68.94368
-70.37528
-67.49647
-65.83287
-68.38415
-72.70625
-65.37202
-59.43007
-63.99100
-69.36243
-62.47007
-64.98915
-74.57901
-74.06481
-66.67922
-67.12072
-65.82826
-56.95936
-63.91012
-72.25673
-72.21470
-76.01605
-77.71947
-74.91046
-75.98359
-71.43271
-73.49289
-75.34928
-76.60798
-78.27985
-74.86866
-67.85792
-72.04254
-73.76562
-72.26900
-77.03946
-79.28874
-73.35045
-69.11691
-69.88120
-66.57311
-70.28623
-64.42541
-65.39324
-63.93217
-69.04265
-70.58391
-70.02385
-68.38741
-72.30559
-67.68884
-71.27363
-72.96800
-77.72104
-68.47045
-71.18994
-66.20220
-64.88874
-64.27278
-70.87362
-77.55659
-74.66929
-65.10224
-60.33598
-66.51466
-62.53345
-64.61093
-65.16554
-57.51927
-63.87082
-62.61005
-62.46434
-62.78845
-68.37679
-68.48242
-65.04324
-63.65902
-63.01585
-66.52158
-62.74663
-63.83278
-65.63440
-64.48171
-60.33917
-57.13534
-55.82114
-58.06539
-60.45452
-58.54379
-58.87059
-52.62278
-55.04989
-55.11510
-56.98208
-52.90122
-59.78112
-59.44572
-57.21540
-55.58699
-57.08567
-61.01979
-57.40740
-56.45878
-67.23533
-57.74845
-56.42701
-54.32484
-51.60791
-55.55607
-50.49821
-49.06818
-56.42567
-61.88044
-68.91898
-62.29692
-58.82082
-57.73416
-57.72127
-64.16870
-64.27724
-64.10833
-72.32182
-72.60194
-69.61675
-67.52394
-66.28457
-68.50328
-73.74835
-68.81287
-75.92698
-73.68966
-76.42326
-68.13262
-71.37473
-68.91036
-68.08300
-58.59467
-66.37157
-70.17708
-67.33110
-59.61790
-54.62049
-51.72740
-62.61981
-60.83379
-68.29352
-73.85992
-61.39317
-70.30076
-71.30092
-67.73992
-64.80281
-60.45337
-56.97379
-62.77926
-62.96843
-59.49421
-56.38465
-57.88070
-58.48245
-58.77233
-61.51731
-63.00881
-71.50002
-71.51022
-74.64390
-72.61096
-65.70568
-62.60117
-63.36815
-61.96048
-57.28658
-54.21173
-51.54738
-53.95570
-51.91018
-47.38785
-49.38529
-48.59943
-54.59976
-56.38106
-54.86896
-53.28265
-53.20508
-47.08610
-49.99017
-48.33938
-55.40430
-59.96911
-59.12812
-62.04916
-68.06248
-66.02578
-62.61906
-63.89582
-65.95308
-55.95288
-59.64753
-57.62621
-51.15242
-57.61407
-63.24448
-60.22613
-57.67515
-61.89435
-61.28125
-59.78617
-61.03251
-59.16372
-61.48818
-69.63619
-68.73738
-67.55141
-69.78334
-67.33819
-75.39046
-76.15183
-67.34136
-66.57500
-64.59626
-67.20644
-64.78023
-71.53541
-68.65770
-75.09600
-67.99744
-73.10848
-75.93256
-74.18034
-79.49496
-81.15790
-74.23389
-77.88977
-74.00438
-80.65259
-76.36670
-70.36670
-71.08834
-70.96945
-70.37167
-69.14303
-71.81719
-71.18292
-64.98729
-66.45574
-64.78447
-64.14818
-64.62027
-71.46029
-71.36293
-71.00445
-70.39865
-69.76762
-64.48126
-71.45593
-74.61599
-73.09916
-68.47084
-64.12933
-67.32926
-71.11105
-65.11956
-65.92673
-70.72876
-73.11319
-69.82539
-69.03788
-73.83289
-67.61452
-71.30850
-68.84001
-68.84922
-75.17533
-71.15795
-71.01076
-71.83581
-67.48664
-69.40960
-75.42370
-68.14184
-66.22648
-72.88895
-73.22969
-68.30924
-60.56490
-64.52093
-64.25345
-63.72995
-68.31441
-67.09749
-69.31064
-69.44540
-71.04136
-62.86090
-62.48910
-64.20595
-65.17758
-64.92189
-65.80743
-69.21792
-71.51700
-71.11102
-69.99257
-65.38820
-66.65249
-69.10000
-66.11490
-68.39979
-65.94346
-65.25585
-62.04869
-64.87127
-63.41894
-67.30026
-61.85376
-62.74149
-61.55346
-58.92235
-67.56444
-68.74913
-67.83156
-70.77697
-76.12454
-67.02882
-75.01387
-76.90065
-72.43369
-71.34128
-72.33107
-77.74196
-75.13579
-77.38385
-74.01699
-76.58040
-80.24384
-79.08582
-76.24290
-69.85333
-76.58408
-75.49821
-73.94898
-77.79002
-75.11672
-75.01503
-72.27162
-73.79681
-73.63972
-66.68071
-70.05156
-65.15691
-75.87354
-71.78815
-66.92124
-70.35356
-66.46451
-65.70087
-66.10497
-67.45615
-65.42117
-71.02094
-68.95669
-70.65960
-75.91533
-73.90309
-71.38536
-71.71595
-71.59829
-73.07980
-74.86147
-77.61757
-75.62127
-75.83552
-72.97705
-75.99166
-70.84548
-72.18928
-67.12615
-67.63665
-66.71411
-78.43348
-67.03914
-72.29128
-73.90066
-71.32593
-69.03422
-71.16015
-73.15685
-67.95965
-72.32739
-67.02881
-68.53105
-72.47391
-75.47203
-72.14230
-72.20792
-68.51010
-64.91362
-69.86742
-70.69543
-72.40480
-66.59683
-70.18204
-78.76923
-71.06540
-68.23599
-75.16691
-73.21303
-77.31900
-70.23080
-79.17511
-78.64991
-76.54570
-75.60300
-73.46932
-77.48381
-84.91639
-82.64744
-84.49894
-83.58350
-85.49626
-80.91642
-70.23318
-79.55825
-81.45057
-75.05553