-102.51278
-105.23132
-98.41345
-96.33856
-103.21857
-91.61358
-100.15551
-108.96977
-105.08006
-100.42906
-97.21928
-97.93513
-92.97332
-88.33695
-85.19899
-91.38300
-96.95615
-97.98387
-86.36960
-94.90422
-100.75686
-92.65139
-84.92441
-89.19631
-92.79573
-92.39322
-89.94310
-99.00381
-102.15859
-103.96202
-102.64992
-96.16706
-96.27730
-98.15993
-94.55496
-107.97956
-104.45413
-103.21633
-103.18568
-96.91304
-103.21130
-99.44641
-98.40938
-98.65891
-96.10654
-90.71911
-94.02484
-100.55180
-102.16196
-102.94501
-100.78872
-103.22384
-104.68523
-108.13614
-100.35525
-97.70387
-101.51029
-97.68100
-98.13070
-93.25773
-97.43601
-94.77991
-95.30015
-95.01561
-94.19258
-89.35905
-92.24815
-85.64267
-88.73266
-88.09085
-89.05676
-92.32590
-95.64440
-91.23426
-95.09700
-91.09861
-83.48972
-89.66642
-81.03277
-79.76223
-90.38740
-94.04039
-86.31507
-92.61706
-91.31851
-92.40254
-92.16745
-91.83412
-95.86846
-96.35414
-89.18211
-86.86328
-88.28093
-91.92200
-89.13861
-104.57505
-100.51939
-99.51881
-93.15545
-91.79827
-90.12652
-84.82796
-85.04236
-79.98651
-88.97981
-81.69957
-84.69953
-92.43786
-99.56901
-95.85527
-95.73956
-93.13176
-90.30615
-87.13830
-84.37824
-93.94868
-93.34799
-100.31888
-91.71992
-92.29042
-89.39607
-95.77876
-87.16752
-94.42217
-81.91234
-89.68394
-92.09263
-98.01874
-90.92375
-84.97704
-89.98561
-88.67773
-91.94179
-97.23488
-98.88989
-94.78009
-94.20772
-97.92113
-97.72266
-91.89220
-101.23980
-97.71185
-105.06380
-104.02818
-96.76468
-86.69965
-88.25196
-86.95641
-93.80778
-86.91431
-85.74522
-80.13849
-89.62420
-99.98618
-103.88407
-95.25901
-97.38702
-100.73072
-99.48836
-95.12154
-100.50463
-99.86213
-95.30867
-104.36832
-101.20872
-101.25464
-99.57223
-97.25954
-105.83462
-102.13707
-102.95722
-110.07609
-105.28461
-100.91241
-99.13616
-106.11727
-108.17971
-105.14283
-105.26567
-102.04215
-109.44739
-114.53751
-109.68389
-106.00882
-106.64390
-111.47762
-106.88806
-112.70746
-110.36154
-107.10564
-111.43621
-111.12386
-105.46793
-102.21254
-103.76872
-108.79106
-100.96243
-104.16004
-97.93939
-96.30294
-100.93265
-101.41842
-100.45600
-104.64403
-104.19102
-95.26375
-101.88713
-99.90150
-99.25385
-98.99381
-88.11252
-94.43935
-95.82590
-95.85953
-88.46581
-90.79142
-89.64443
-91.81542
-94.68644
-92.90625
-88.03096
-95.57299
-93.46566
-90.55397
-91.34272
-97.13913
-91.83567
-85.64071
-91.76470
-97.63812
-94.18505
-93.56187
-94.75602
-96.94119
-97.83732
-94.91872
-89.43642
-96.27613
-93.38752
-87.59103
-93.92569
-102.35603
-101.97843
-100.91475
-102.26294
-97.39499
-99.37534
-96.72099
-97.76698
-98.35351
-96.70918
-95.51622
-100.97638
-99.54513
-101.06013
-99.37339
-94.63104
-104.89397
-105.05967
-100.87462
-105.04585
-107.15985
-105.61675
-98.00930
-91.21348
-90.20264
-87.60095
-94.10055
-95.54485
-98.79368
-99.08921
-101.77441
-94.71160
-97.05600
-100.79563
-95.86203
-105.36274
-105.76078
-105.06092
-108.18341
-111.82352
-107.05875
-108.28423
-103.31416
-106.69294
-106.93565
-101.67023
-104.73980
-102.23189
-99.24546
-104.52864
-99.07489
-102.24898
-105.35098
-106.50366
-100.28200
-99.50398
-99.18225
-99.42947
-100.97419
-102.46817
-104.91239
-108.80447
-108.01602
-108.18848
-101.55457
-107.62351
-107.33259
-105.52589
-98.85499
-93.49685
-98.36673
-101.54275
-96.18377
-104.40135
-104.87282
-105.27969
-107.67480
-109.57708
-108.01719
-107.37593
-108.41836
-104.29734
-105.24704
-102.34031
-101.19306
-100.81607
-98.37700
-95.98071
-95.33954
-92.73758
-98.18936
-92.59606
-88.79426
-99.23908
-95.58004
-99.39853
-99.40757
-95.53888
-94.21813
-93.37522
-101.44900
-101.55977
-94.67588
-99.02481
-94.24994
-89.25224
-97.78966
-91.99536
-91.18251
-94.09540
-90.89295
-87.95048
-96.18570
-92.33405
-90.11111
-93.86488
-92.26248
-95.35418
-91.40899
-91.87237
-91.21195
-97.66703
-93.95851
-96.00490
-97.26850
-101.22208
-91.51627
-86.92652
-97.32000
-97.09709
-88.57240
-96.61387
-95.65337
-96.68462
-103.20824
-94.02019
-94.71102
-100.96342
-101.19571
-98.42964
-100.32046
-99.03299
-99.79377
-100.29098
-102.14710
-100.61828
-103.33124
-99.21021
-101.38198
-99.57458
-106.24819
-105.30966
-105.65911
-108.37023
-113.54888
-108.16125
-108.56867
-106.53111
-100.80817
-99.37613
-99.49201
-103.37169
-99.86139
-97.14397
-99.82427
-103.12500
-103.66959
-97.90582
-98.37936
-98.38508
-100.08037
-96.29506
-92.37301
-91.29532
-95.45123
-101.43553
-105.47729
-102.66179
-102.02228
-97.12792
-96.18125
-104.17755
-103.13256
-103.23595
-105.06433
-102.60527
-104.34014
-111.10001
-111.87351
-110.15520
-106.63827
-102.49424
-106.89970
-106.08165
-104.32340
-108.75563
-104.53462
-103.09579
-104.77814
-98.27779
-96.15768
-93.35586
-96.65033
-99.83150
-99.53081
-99.63210
-99.89704
-100.24894
-105.40348
-95.70435
-94.67655
-100.17887
-101.75559
-97.45190
-100.84349
-95.96121
-99.30540
-89.76492
-87.44016
-95.33041
-97.30878
-99.09226
-92.58271
-94.09933
-95.22051
-96.29029
-98.12996
-100.09546
-101.58069
-96.55161
-102.39428
-104.48437
-98.95298
-99.80512
-107.71902
-105.21227
-111.79930
-109.12783
-101.55297
-107.57631
-105.62774
-113.43706
-105.84458
-106.51742
-101.30066
-99.78942
-102.36173
-106.92625
-115.30598
-105.66742
-106.43242
-109.62349
-102.30449
-105.60634
-108.53704
-108.20830
-109.59886
-110.50189
-110.06529
-104.12676
-98.27524
-106.14140
-102.79283
-97.93725
-91.56026
-91.15071
-94.10113
-97.62084
-91.69984
-93.17711
-103.28612
-105.04049
-93.01535
-94.42860
-101.31957
-101.50678
-97.64848
-92.51898
-95.25229
-97.69019
-96.36776
-101.29393
-103.13290
-101.54843
-109.86740
-104.34615
-97.20417
-95.52975
-105.08689
-98.48422
-96.47833
-100.84288
-95.79561
-94.32514
-94.50057
-96.48907
-97.97919
-103.85825
-106.61245
-105.29751
-103.36025
-102.32850
-105.76860
-102.87304
-98.07511
-100.53118
-98.60785
-101.20715
-100.07680
-91.44352
-96.51875
-98.09023
-93.98242
-93.81786
-94.30947
-94.42375
-90.32192
-90.65005
-87.11215
-84.57966
-86.82753
-90.65385
-98.22102
-98.88125
-94.78416
-92.89421
-90.88453
-87.55307
-91.81060
-92.46457
-89.38400
-91.67085
-86.14933
-87.59291
-81.41279
-82.90597
-84.03341
-86.66995
-81.96212
-88.39967
-85.29395
-85.15595
-92.46732
-94.39933
-84.96592
-86.01870
-82.29197
-88.90913
-90.89343
-92.24340
-92.67098
-88.94622
-88.02613
-90.33411
-89.23316
-92.02005
-93.15097
-87.60912
-96.04503
-98.14350
-103.18917
-95.22981
-94.28834
-94.37041
-98.83021
-100.80871
-95.29299
-91.05658
-97.64535
-92.75233
-98.62966
-96.57856
-94.91127
-94.72912
-100.37079
-103.64373
-98.82275
-101.26217
-99.15645
-93.07334
-92.59530
-96.56001
-101.88086
-98.60368
-99.16084
-98.35778
-102.39916
-90.56270
-92.91566
-95.21290
-98.15598
-95.42426
-98.90048
-96.87111
-89.16711
-91.99552
-91.40895
-92.01860
-95.65311
-89.69054
-89.95222
-95.91963
-96.39204
-95.59401
-101.24242
-102.12485
-97.87298
-96.47079
-97.66225
-97.71594
-96.20865
-93.96246
-94.74873
-100.82325
-97.20505
-98.58481
-95.74448
-96.88882
-95.18041
-95.31356
-95.24393
-95.73588
-94.52979
-99.01664
-102.35600
-97.67059
-91.86199
-97.00833
-91.78913
-94.02670
-97.56065
-100.12339
-103.14407
-98.55044
-94.09918
-94.84926
-98.09080
-94.87673
-94.72002
-94.00016
-97.14158
-92.29369
-93.61904
-98.46359
-99.43067
-92.80692
-94.27494
-91.24051
-94.96996
-94.41145
-100.82296
-104.87509
-98.36503
-97.96419
-87.05321
-88.82688
-89.72563
-94.43233
-98.81480
-99.96187
-99.20337
-98.31114
-93.69725
-98.56221
-95.84797
-97.42919
-99.30020
-92.64292
-88.19884
-89.58844
-95.87109
-94.82569
-96.86645
-95.62605
-97.72601
-94.54655
-101.97798
-101.62173
-95.62208
-96.18147
-91.21267
-95.73892
-93.41973
-98.45000
-91.67700
-92.77914
-97.09695
-93.66944
-91.93560
-89.85113
-91.93326
-87.10835
-80.35017
-87.24383
-89.87610
-98.92609
-94.74089
-93.97809
-91.41134
-94.60498
-104.03126
-105.71875
-97.95703
-96.00003
-95.91180
-96.36405
-95.45137
-94.08134
-92.02476
-89.82267
-85.89420
-84.36526
-95.10537
-97.38259
-94.10042
-98.77461
-97.16283
-93.37929
-92.41948
-100.56110
-100.20102
-103.89176
-106.92282
-107.82142
-101.18589
-106.34018
-109.61700
-104.76327
-104.46880
-105.57815
-112.49712
-105.41845
-104.10246
-104.82915
-106.78608
-108.72482
-102.13832
-101.81341
-97.89335
-104.98136
-102.83041
-111.95193
-115.18852
-105.94162
-107.54915
-104.52417
-101.49962
-100.85158
-99.78093
-92.89774
-95.93660
-95.09824
-93.90776
-90.38855
-94.63528
-96.15392
-96.88461
-96.12250
-97.98294
-93.12111
-90.05889
-93.69566
-88.28201
-90.01517
-88.43346
-88.96964
-89.69521
-94.37770
-100.05980
-100.82426
-93.00386
-95.82098
-96.70134
-88.06994
-90.19367
-97.09202
-93.67809
-92.06121
-93.07284
-98.17913
-98.81325
-95.46157
-95.61567
-99.30052
-97.72653
-103.91803
-109.53257
-105.52663
-96.61935
-99.99741
-93.22531
-96.29010
-101.88859
-92.31184
-95.47350
-90.95941
-90.69691
-89.84300
-94.89536
-95.19649
-95.04313
-92.53295
-91.01426
-94.56588
-97.04390
-94.31544
-87.47023
-93.27135
-89.55590
-84.35069
-87.56108
-82.12777
-83.16351
-81.17859
-79.37370
-83.81379
-87.22001
-85.23720
-85.50346
-83.15610
-89.22557
-81.57826
-79.27592
-82.93051
-89.95742
-86.89460
-84.40936
-88.99352
-87.15232
-84.68299
-84.76008
-81.04912
-81.80485
-81.19886
-80.26831
-79.72505
-87.34975
-86.00544
-83.92670
-83.63516
-82.32001
-85.14560
-84.06363
-83.35800
-80.26824
-75.07034
-82.34807
-75.95895
-82.17637
-82.41482
-84.20671
-81.41866
-85.48613
-88.86198
-79.21310
-82.45760
-92.58488
-90.46644
-87.73887
-92.09515
-91.79726
-89.60484
-95.05771
-90.15906
-94.81978
-98.93812
-94.81274
-91.06069
-85.42678
-92.31937
-95.90478
-100.63667
-98.05836
-92.95885
-93.58933
-94.72255
-95.96061
-101.44782
-97.14682
-93.21869
-94.95423
-97.20345
-101.41009
-100.56833
-100.19235
-97.76556
-92.93336
-94.27249
-96.09341
-94.31152
-97.11733
-96.88216
-101.07807
-95.14467
-100.04479
-99.00361
-98.08896
-92.16790
-101.07346
-98.73277
-93.04907
-92.22600
-88.10177
-94.18336
-91.73307
-94.26716
-89.86805
-84.22994
-81.70770
-84.71890
-91.29415
-93.27598
-87.07931
-87.51236
-94.16152
-92.31814
-92.86124
-91.47665
-87.53112
-97.79984
-91.76401
-90.35468
-87.56073
-92.97654
-87.47155
-83.06991
-84.25934
-86.31000
-80.90532
-86.97936
-90.23311
-87.32671
-90.86758
-91.64500
-85.33283
-92.56315
-91.55913
-87.05799
-81.34363
-88.38457
-87.58428
-86.75160
-89.33435
-83.90697
-85.88798
-86.52652
-93.85091
-93.92590
-89.41973
-91.18065
-84.19628
-89.87030
-86.47836
-88.40004
-85.10001
-92.69429
-97.71061
-93.16436
-90.64673
-84.23005
-86.68604
-87.18605
-86.94187
-82.65785
-86.38901
-82.58378
-85.95917
-87.39563
-92.95186
-90.11236
-94.67838
-94.78801
-95.74598
-93.94335
-91.96416
-99.33953
-94.45716
-99.98853
-99.06836
-88.04776
-94.77620
-89.40030
-88.51438
-89.62836
-83.80838
-87.77986
-92.08303
-93.01063
-98.20213
-92.93196
-90.92695
-87.71600
-89.21473
-85.52081
-80.81750
-90.15781
-86.93554
-89.42096
-92.83290
-95.58417
-98.68611
-92.77157
-87.68587
-92.32409
-90.30514
-87.52817
-97.07707
-98.22960
-92.55066
-94.67770
-94.01045
-84.41473
-86.07263
-90.84531
-93.73755
-92.13945
-85.31256
-83.07260
-84.25079
-77.35122
-75.94228
-82.23613
-77.14145
-78.25211
-82.95103
-82.87272
-79.41880
-83.32675
-77.80822
-75.56758
-76.60358
-82.25339
-78.38484
-81.21187
-85.60044
-82.12156
-85.58583
-86.21681
-84.19115
-89.35830
-84.98804
-82.56456
-87.84437
-88.52122
-84.53481
-80.13885
-85.78610
-86.57900
-84.93859
-83.66931
-85.10466
-91.69283
-85.20221
-89.45918
-89.12008
-87.78967
-87.51926
-82.82357
-82.97978
-85.61539
-82.95294
-86.17613
-86.28059
-81.30069
-82.62181
-80.12626
-86.86162
-85.50291
-82.87458
-88.88252
-87.25581
-89.83626
-90.53670
-93.08451
-85.95028
-85.50691
-92.01248
-91.78426
-85.56724
-77.80666
-79.22026
-79.65090
-72.30074
-77.64887
-84.78231
-81.49686
-82.00760
-84.25787
-87.64469
-87.88004
-85.98320
-86.29830
-79.05997
-82.37132
-84.67471
-79.68533
-70.20609
-70.70871
-68.29989
-74.31470
-79.38322
-78.76958
-81.78518
-83.58483
-86.19227
-86.38589
-88.44837
-84.68371
-83.26016
-86.15630
-92.75304
-91.52124
-86.73297
-85.11405
-87.37616
-88.29278
-78.02659
-83.45965
-91.35429
-89.02814
-82.34399
-82.40320
-80.24191
-84.49004
-82.02929
-91.77807
-90.64518
-87.16560
-81.50390
-77.90458
-85.23111
-76.30813
-79.15070
-80.73898
-79.87676
-78.14201
-84.68490
-86.58494
-79.68831
-84.20933
-80.65172
-68.89744
-73.52246
-80.03163
-80.64768
-82.06842
-89.40423
-84.80560
-86.63681
-74.40157
-76.33872
-77.02089
-82.41657
-77.96548
-80.94625
-79.35062
-81.18475
-77.82958
-84.54238
-81.48112
-82.46898
-78.85652
-80.12318
-87.53496
-87.90352
-86.29339
-86.15164
-85.39470
-89.49869
-88.60854
-87.87696
-86.00320
-81.34615
-77.20130
-83.74812
-81.80033
-77.63510
-79.35061
-86.16906
-75.80673
-79.05002
-80.79859
-74.82219
-78.76799
-78.70446
-73.11983
-79.93489
-79.75743
-79.53204
-81.31824
-77.77235
-75.23120
-83.52557
-79.54338
-85.67247
-84.67112
-84.63753
-81.90579
-79.51022
-84.95239
-88.76790
-78.29586
-90.32426
-91.98100
-91.91087
-95.87764
-92.10410
-91.84946
-92.95913
-92.90133
-92.11139
-89.89192
-86.50723
-93.65731
-89.11584
-91.31595
-90.03862
-93.96321
-88.59872
-92.36137
-84.43934
-76.89616
-86.06590
-88.14851
-86.92557
-85.55297
-91.94631
-90.87970
-92.59155
-91.71913
-93.68730
-95.12554
-94.38401
-99.79338
-99.96840
-97.57738
-90.02828
-93.64613
-93.60591
-87.64161
-86.50604
-84.70023
-97.06887
-98.70436
-88.67986
-85.60687
-98.10240
-92.42767
-90.91548
-89.37333
-89.76710
-80.24692
-88.10176
-87.24340
-92.63504
-91.11726
-93.45697
-97.71007
-92.71394
-90.58990
-91.68497
-86.44211
-96.74465
-94.84896
-90.44437
-93.56712
-98.33060
-93.68067
-99.24944
-91.17705
-86.27406
-83.38948
-84.08284
-85.32185
-92.92413
-91.58072
-82.96797
-92.22548
-93.43884
-92.28007
-93.48940
-97.40801
-92.71750
-90.73941
-96.88132
-97.96316
-92.55358
-92.97875
-94.43352
-96.51026
-96.69773
-99.17720
-99.11861
-98.20129
-95.40325
-90.03190
-92.22177
-90.82259
-95.43171
-93.07139
-94.97755
-87.95474
-85.51630
-88.85157
-89.31418
-95.47014
-93.79995
-100.79781
-97.23351
-90.06620
-91.77769
-95.32235
-99.05795
-93.99695
-92.07521
-89.87479
-92.90614
-89.46908
-93.51543
-87.03044
-85.61114
-89.31385
-90.48532
-93.20438
-86.85819
-89.58851
-93.57949
-94.39905
-92.27527
-91.01864
-91.60643
-95.50424
-93.13147
-91.96120
-94.19550
-96.23269
-92.03005
-97.77093
-102.21563
-95.58357
-85.68956
-88.89946
-87.24112
-85.79263
-83.87832
-81.03515
-89.79768
-91.66096
-90.84104
-86.05348
-84.77491
-90.39762
-89.09268
-91.24120
-91.95260
-92.24632
-93.06952
-91.33277
-85.06566
-79.42031
-76.66905
-80.86686
-88.74153
-81.84064
-82.42239
-82.91557
-84.22995
-83.01527
-85.65486
-86.47117
-87.41613
-94.67177
-93.52900
-93.27271
-91.29030
-86.32859
-86.45963
-85.67786
-87.05794
-83.98826
-87.43889
-85.64370
-83.44276
-85.87643
-95.63559
-92.63951
-87.97233
-82.55362
-84.24511
-88.34918
-85.84903
-87.41977
-92.16975
-93.94545
-94.30482
-93.32750
-89.67858
-88.60777
-87.36975
-88.42551
-93.53319
-90.14511
-93.38630
-90.54160
-90.97638
-97.15790
-91.73531
-91.88295
-87.03685
-85.41978
-87.06806
-92.11423
-95.98693
-94.34236
-91.45137
-88.65086
-85.19291
-86.26491
-86.79984
-88.46613
-90.71115
-87.88971
-82.19249
-81.76296
-76.53705
-73.22696
-85.00370
-81.81380
-76.06245
-82.54395
-79.36628
-77.83940
-75.55096
-77.36282
-83.28660
-86.49569
-86.10751
-87.53240
-82.15369
-96.05531
-97.15057
-99.63738
-93.65698
-87.61458
-81.55289
-82.18731
-82.79459
-84.31435
-82.27142
-91.06831
-90.61649
-89.28044
-91.61477
-92.85770
-83.49765
-87.78481
-84.04681
-83.25440
-85.01597
-77.49914
-76.93256
-81.40818
-87.98721
-86.95802
-88.72862
-86.94393
-90.92071
-94.22483
-97.47163
-90.08569
-84.88459
-82.86005
-89.95096
-91.56653
-85.71647
-84.33016
-87.18604
-92.17491
-91.78340
-89.92047
-85.38680
-83.98701
-81.82136
-85.36886
-86.99500
-89.28502
-92.47869
-91.08857
-80.42292
-83.31846
-88.66575
-92.53642
-91.14473
-85.28594
-85.86006
-94.69276
-90.21393
-88.79134
-82.91049
-79.84788
-92.22044
-85.57625
-85.97459
-84.40555
-84.18249
-79.85812
-84.64013
-77.52811
-74.14335
-79.12022
-88.44820
-87.98790
-89.83799
-82.12837
-90.39702
-89.96343
-87.22329
-83.41307
-91.33751
-93.18269
-92.39529
-98.44451
-89.48631
-95.30514
-95.60480
-101.71530
-108.06838
-106.65937
-101.82589
-105.93004
-105.19170
-97.65383
-99.36263
-105.03003
-103.75189
-97.88596
-101.57257
-95.91636
-94.00350
-100.90598
-96.96662
-93.65398
-93.58710
-89.90257
-94.78220
-95.72488
-95.60227
-86.83945
-90.11294
-88.04706
-92.81402
-86.84490
-79.08846
-93.67943
-92.02770
-88.54583
-85.66543
-86.43904
-87.96961
-82.44512
-74.43957
-73.13664
-73.29806
-80.07486
-83.43025
-80.06461
-76.59112
-77.82974
-77.24683
-74.98438
-79.18576
-72.84296
-73.16026
-83.16067
-80.72753
-82.43259
-85.20876
-92.53393
-91.27340
-87.20842
-89.29939
-84.09665
-79.84903
-75.62951
-78.24779
-92.68159
-92.29309
-82.20193
-84.04581
-81.26480
-82.31754
-83.08435
-86.24099
-87.01062
-92.02551
-92.85597
-87.77923
-83.29842
-89.93519
-79.35782
-85.08909
-93.93725
-88.95939
-86.20103
-88.17365
-90.42335
-90.99647
-84.25513
-82.25324
-81.31216
-82.04617
-76.08401
-68.44422
-64.31748
-71.99200
-77.29254
-78.57574
-73.36203
-82.35863
-74.70730
-75.94099
-68.64066
-68.35648
-75.19433
-69.66477
-75.35032
-71.31867
-71.54514
-67.61330
-76.84211
-80.30340
-79.93314
-86.28085
-81.73554
-81.93828
-78.78827
-87.31637
-80.47009
-88.72260
-89.16849
-86.75293
-85.33170
-80.39001
-73.31484
-81.68172
-80.56549
-84.72884
-86.19681
-86.31858
-83.13780
-85.46787
-84.25672
-84.12131
-78.82543
-74.32657
-72.00434
-74.04662
-76.96918
-77.53818
-74.56548
-79.46665
-81.35002
-81.14372
-83.97222
-87.46098
-90.72912
-88.17264
-77.55231
-81.33664
-83.99496
-78.89150
-79.85889
-87.52065
-89.46202
-83.39665
-82.26544
-80.47019
-84.81153
-90.29919
-88.51265
-91.89178
-90.08185
-91.56007
-86.50665
-88.12745
-96.12490
-93.17366
-82.57696
-90.06260
-83.49609
-81.15160
-87.70598
-85.01005
-80.28776
-80.67875
-79.36070
-81.19175
-73.91486
-71.10381
-71.46606
-76.10617
-72.74531
-68.21339
-72.85812
-72.64600
-76.24728
-78.21836
-75.22437
-70.30841
-74.36527
-77.15045
-78.94551
-76.17857
-72.52494
-72.77560
-74.80748
-73.88069
-69.35504
-67.62791
-70.90608
-73.28059
-66.43333
-72.12594
-67.57084
-76.14568
-74.88436
-79.23211
-73.22714
-73.29055
-78.26105
-78.79109
-75.64939
-77.57743
-73.42092
-75.00372
-76.84499
-74.60641
-68.70148
-70.97926
-74.62997
-79.87558
-71.63900
-71.98404
-76.10291
-74.64492
-75.04315
-75.44573
-76.19956
-85.13773
-85.66222
-84.18242
-81.41553
-82.21156
-83.52601
-82.75081
-83.38624
-81.24450
-89.80750
-79.36263
-86.56423
-84.26881
-82.14599
-89.66269
-93.05691
-96.11576
-99.29451
-99.57975
-97.22173
-96.03116
-96.57037
-94.96122
-95.93614
-94.60247
-94.27910
-98.58408
-90.27384
-88.73410
-91.49469
-91.36320
-90.00692
-91.08952
-89.30907
-89.44042
-89.10715
-88.92053
-90.80891
-94.82756
-91.17182
-91.43056
-87.32449
-89.65026
-87.25315
-84.14366
-77.38748
-83.16890
-92.36878
-84.53218
-87.21705
-89.55993
-89.20241
-87.65518
-85.95787
-90.24951
-80.94338
-84.78892
-92.90603
-89.67227
-82.82040
-87.57310
-82.16608
-80.14780
-83.74151
-86.15269
-88.88319
-78.35981
-87.58076
-87.62431
-87.45676
-91.00552
-91.98738
-92.49741
-89.76031
-85.04329
-83.99278
-86.27604
-84.88428
-90.69204
-95.94683
-92.57420
-91.82026
-86.29727
-89.43448
-93.09024
-88.87306
-91.61513
-91.93734
-76.49342
-91.68491
-84.21151
-81.94576
-88.90203
-83.01706
-76.93571
-77.97685
-84.62751
-84.42849
-82.53573
-85.43633
-85.49375
-78.79094
-73.02647
-74.97530
-73.31997
-86.36500
-82.67258
-76.31105
-78.98628
-78.14897
-77.45909
-80.30058
-79.02704
-81.62113
-77.04945
-81.57487
-78.48397
-77.87985
-85.06302
-81.69915
-84.58625
-84.13962
-81.15804
-79.38810
-82.59508
-84.78553
-78.83961
-79.79502
-80.80066
-80.39386
-86.90085
-72.61903
-76.43936
-75.17347
-76.43351
-85.30948
-80.64845
-83.45415
-85.96719
-91.29366
-86.38350
-88.85477
-89.87397
-88.63399
-89.83455
-91.93057
-91.09837
-96.44582
-94.30824
-91.34772
-87.72542
-89.54546
-87.75454
-88.25826
-83.80286
-81.68730
-83.20978
-87.91109
-88.66235
-87.83051
-84.27179
-92.22210
-89.93150
-94.23361
-98.70701
-99.00508
-93.98803
-94.47516
-99.57265
-90.30047
-89.70703
-89.17671
-93.90431
-98.98407
-94.36699
-92.24189
-88.96709
-90.18547
-87.14160
-83.89391
-94.70874
-103.47948
-104.90011
-100.23857
-100.39142
-99.46149
-95.90440
-104.45595
-98.10793
-99.01868
-102.52984
-102.10013
-93.28374
-91.82022
-85.39242
-90.81219
-84.77757
-86.51923
-88.53102
-90.15036
-84.67404
-83.38209
-83.39303
-86.71271
-90.19335
-92.85666
-89.65542
-84.54843
-87.86034
-85.48489
-87.94990
-91.01426
-97.10334
-93.78392
-101.57613
-88.80873
-89.28206
-92.52925
-93.78829
-100.91818
-94.25241
-93.44699
-93.12375
-90.54290
-88.78580
-88.88859
-87.66747
-85.09014
-82.83658
-81.83766
-81.85720
-81.76168
-79.91967
-75.21165
-87.11084
-86.58641
-90.11813
-88.36957
-88.66238
-83.81511
-88.46594
-86.91849
-91.87744
-94.57137
-88.41364
-91.20464
-95.28684
-89.34492
-92.19534
-91.15400
-92.25176
-99.29213
-96.56545
-85.90260
-94.12985
-100.10498
-95.27675
-95.43323
-96.05979
-94.66537
-90.80645
-93.15397
-94.82648
-100.09360
-97.12896
-98.52959
-92.78375
-101.63913
-104.39353
-98.57794
-98.39529
-102.78047
-108.65690
-105.31701
-108.99681
-104.92633
-104.93310
-107.12971
-94.98343
-107.13434
-108.97998
-109.28707
-111.11106
-108.82653
-109.91396
-109.58575
-103.94305
-107.74706
-106.30780
-99.67393
-103.46531
-102.66155
-105.05789
-99.31632
-96.34248
-97.08646
-100.94461
-106.61238
-105.75243
-100.81015
-100.84595
-104.02956
-113.24702
-108.21196
-108.62144
-112.25653
-108.90929
-107.57149
-106.05577
-106.20384
-108.42411
-108.10308
-104.63944
-110.59417
-107.37203
-107.40650
-106.12103
-103.51105
-104.86620
-108.25442
-109.66823
-103.63744
-109.64066
-105.82861
-108.32871
-102.89492
-109.15983
-110.19096
-112.58124
-116.75320
-113.71651
-111.01860
-105.10918
-105.53144
-102.11639
-104.38839
-102.44946
-108.42075
-103.85003
-116.39405
-116.20445
-113.09335
-108.14482
-111.03687
-101.91965
-99.39489
-106.26627
-106.16019
-101.72363
-100.91681
-97.39903
-100.68848
-93.57430
-96.16654
-92.76522
-92.46173
-87.29219
-83.18440
-82.42681
-88.41156
-90.56268
-86.86278
-94.25725
-89.27102
-90.59409
-91.18252
-91.30777
-104.07068
-98.02031
-101.51752
-100.87162
-101.34023
-97.51356
-101.34116
-101.44157
-100.47597
-99.73502
-100.12699
-103.53524
-107.95635
-100.08383
-104.05694
-98.49493
-93.70770
-98.40500
-99.54009
-100.42112
-97.09179
-96.23922
-92.48339
-89.41256
-94.58896
-97.02337
-98.30132
-104.05637
-99.73262
-102.08989
-100.62148
-107.20926
-99.70418
-96.48379
-103.05873
-101.89978
-104.18489
-96.71764
-88.95937
-84.44072
-101.73753
-101.41625
-97.65877
-97.70965
-98.99143
-93.21963
-89.37395
-88.62128
-83.99315
-85.82797
-84.44249
-79.38128
-87.76101
-86.09134
-83.14235
-89.97930
-87.96493
-81.51383
-80.85951
-84.78000
-89.65475
-87.61117
-86.67671
-86.72309
-89.22678
-91.29068
-91.09254
-90.94265
-92.74808
-85.59981
-73.45184
-84.70015
-87.09350
-84.96631
-86.52154
-91.34551
-86.32504
-87.96570
-85.27870
-81.48521
-83.80855
-80.22767
-81.54137
-78.75280
-79.91096
-83.20431
-86.62303
-81.52751
-87.92087
-88.81899
-88.45338
-82.69656
-85.62281
-83.47983
-81.97453
-86.12312
-84.23447
-87.41723
-85.98849
-74.62869
-77.20168
-81.84201
-79.87640
-85.85071
-87.67797
-89.41478
-84.99192
-84.00616
-80.38217
-85.16279
-86.06456
-84.20027
-84.65284
-87.16050
-92.19882
-87.60682
-87.56873
-92.61182
-93.15837
-90.63995
-89.44316
-87.88723
-94.11996
-89.27700
-89.81127
-90.70300
-88.59539
-92.97307
-95.75797
-94.77005
-89.80190
-91.49673
-93.69030
-91.59168
-90.99177
-89.23119
-93.27223
-96.33810
-96.59679
-90.15084
-90.03466
-90.87898
-88.49339
-89.68385
-85.85775
-90.69994
-92.13509
-89.03672
-84.11429
-91.63517
-89.88286
-94.88622
-95.09733
-88.53405
-88.37805
-87.66862
-81.23201
-77.37996
-80.64097
-82.37989
-83.18737
-77.24421
-79.36945
-81.31003
-83.62196
-82.98337
-75.60809
-82.94537
-78.77878
-83.94112
-91.78575
-81.04321
-79.84712
-69.89947
-80.29459
-90.88482
-86.81390
-80.27845
-80.25926
-81.62367
-81.85087
-84.93956
-87.08406
-84.70001
-80.52092
-85.01600
-91.56793
-91.97419
-95.05492
-90.49584
-87.28877
-92.49311
-94.57706
-92.12171
-82.07716
-81.75153
-80.84547
-80.66291
-76.38489
-81.76933
-87.94034
-92.21170
-88.88742
-87.33322
-80.57835
-86.19924
-91.02855
-85.11799
-78.30337
-78.96915
-81.37880
-79.17854
-73.43904
-78.93284
-79.12617
-83.56992
-76.48296
-78.52650
-84.96803
-77.92797
-76.49530
-74.01977
-73.10481
-77.09985
-76.45709
-79.87667
-83.00515
-85.04886
-82.00143
-86.81103
-82.58386
-82.84672
-81.81801
-87.84292
-93.22494
-91.32532
-89.76511
-94.07243
-90.07223
-88.76151
-90.79273
-82.02680
-83.24183
-85.82862
-79.42018
-80.73926
-86.32325
-91.61771
-88.99825
-87.58545
-85.72857
-88.27392
-87.91460
-87.38939
-86.81386
-87.65023
-86.10436
-84.34722
-83.42972
-86.21401
-87.44762
-93.42002
-94.46072
-94.38375
-88.86523
-83.65858
-85.14599
-93.81238
-98.98235
-99.35400
-90.20586
-89.89666
-101.28660
-96.94452
-93.09360
-91.80486
-91.95246
-88.24949
-85.85631
-85.23879
-75.88736
-73.32267
-80.43886
-83.65761
-82.12879
-80.18133
-74.12890
-79.49857
-79.07131
-72.94957
-75.15256
-78.35446
-81.01799
-76.33869
-69.46641
-70.90718
-69.93591
-73.44688
-74.18538
-78.39648
-78.54992
-85.26776
-84.56138
-81.95929
-81.92039
-83.04842
-80.01716
-78.65068
-81.59167
-79.84493
-73.40776
-74.82132
-77.75252
-70.80241
-78.31435
-75.85037
-65.79158
-76.22003
-80.81932
-65.05481
-56.12688
-54.89519
-56.40481
-54.56778
-55.02110
-56.34224
-55.18292
-50.27228
-62.96486
-71.44547
-63.79049
-64.09062
-70.50588
-78.85656
-64.76799
-62.36606
-67.45848
-65.23957
-63.74478
-69.72335
-79.09853
-74.65979
-77.21092
-70.96934
-77.15993
-80.80433
-81.46527
-74.50995
-77.51096
-84.22582
-82.66452
-83.21334
-89.26896
-91.94560
-94.08274
-93.01700
-92.82450
-90.87116
-88.92852
-83.96132
-86.29758
-88.75710
-88.71753
-86.28940
-87.68487
-91.59476
-83.95156
-84.77518
-85.50577
-92.99272
-89.13234
-87.44723
-90.42492
-86.76503
-82.84954
-80.12164
-82.57931
-86.45531
-85.80171
-81.19280
-86.03495
-89.50199
-86.18256
-83.81016
-78.28342
-82.25380
-84.31703
-85.28916
-80.89102
-82.74160
-85.77076
-78.74414
-87.36450
-85.43827
-80.73456
-73.66383
-67.63297
-68.55199
-67.16316
-74.66010
-80.23755
-79.93155
-85.67184
-83.94252
-89.80292
-85.23187
-83.48719
-79.20906
-81.67713
-82.09990
-76.54703
-77.69393
-87.83165
-87.98008
-81.28128
-86.94406
-80.51859
-80.08222
-84.48772
-79.96179
-78.18876
-76.17053
-88.28862
-84.71888
-83.65177
-81.64592
-78.96774
-82.06331
-92.43238
-86.90784
-88.29695
-91.93137
-88.62214
-84.60854
-80.93067
-84.72472
-91.53775
-89.70687
-86.75053
-91.75237
-90.70145
-86.53578
-88.73419
-82.47567
-86.93095
-89.25703
-88.15806
-85.81004
-87.42222
-85.02094
-96.13400
-97.73179
-94.98916
-85.57481
-86.30978
-84.78438
-85.38957
-89.12001
-87.33548
-74.62207
-81.16329
-86.51531
-86.93867
-89.78434
-93.19548
-98.42079
-93.14318
-92.24668
-95.77878
-99.03667
-95.66528
-97.40948
-98.18184
-96.17363
-105.07812
-96.89362
-102.69434
-100.91712
-89.05180
-99.06030
-100.27139
-97.64702
-98.10248
-103.47750
-98.75872
-102.16504
-98.04612
-100.76113
-96.12711
-97.30160
-96.41093
-95.36036
-96.94552
-95.81301
-99.54383
-90.46533
-89.10315
-87.39374
-88.81647
-90.40826
-92.20751
-99.67520
-93.00109
-94.78549
-96.33818
-85.28722
-83.22114
-84.18596
-85.87073
-90.76162
-83.70247
-73.04175
-70.34193
-85.40862
-80.24308
-76.26868
-88.56535
-93.22393
-96.05976
-96.78104
-96.02511
-95.08348
-89.65562
-91.92060
-94.95755
-82.10580
-82.42508
-93.51188
-87.08452
-77.75219
-86.81123
-84.08570
-79.50083
-81.88870
-88.30774
-83.28738
-78.30374
-80.69574
-84.18524
-87.62494
-86.70631
-88.93609
-90.21318
-91.74410
-91.76929
-90.29166
-94.85487
-98.59770
-92.26110
-91.27876
-101.07848
-93.95206
-96.35051
-100.93064
-94.75358
-91.41321
-89.51960
-91.43764
-86.86314
-88.98594
-88.26940
-93.61759
-98.58511
-93.07202
-90.41258
-91.96315
-90.69006
-93.66494
-96.49225
-95.95184
-90.90847
-88.60065
-86.92048
-88.61907
-88.95127
-95.23286
-97.60434
-91.85319
-92.20601
-92.05640
-90.70692
-86.25819
-93.11326
-92.37543
-93.76775
-96.24305
-93.56094
-92.32344
-93.54931
-94.30975
-91.76849
-93.31732
-93.53948
-100.51228
-98.60527
-94.13553
-95.82214
-100.61690
-95.76473
-94.72279
-98.24610
-96.95055
-86.56878
-91.09575
-93.47857
-100.31656
-95.76750
-98.47637
-100.99919
-101.42344
-99.61139
-98.72332
-97.42639
-103.09605
-97.42506
-98.31085
-104.96557
-101.43409
-94.68821
-94.02290
-100.66250
-97.57278
-94.33519
-99.19387
-99.35821
-93.29364
-88.68422
-92.36883
-88.82976
-90.66743
-89.86793
-96.36686
-96.86334
-94.42220
-94.79763
-96.68947
-93.53372
-93.85595
-97.81567
-101.09177
-96.08318
-96.75655
-102.46733
-100.47517
-99.07682
-98.04481
-99.90349
-99.91566
-98.10993
-100.87654
-97.41372
-98.93186
-97.74537
-97.96695
-99.93802
-102.00461
-98.19125
-95.17771
-95.26313
-95.30643
-95.60794
-94.15361
-92.59166
-91.09877
-91.57088
-89.08454
-89.70736
-92.44738
-89.96669
-87.07756
-81.44944
-80.37587
-81.80620
-84.12129
-83.12761
-87.29648
-84.37301
-86.54589
-90.21586
-90.27764
-88.99416
-88.87772
-89.24992
-89.74817
-81.60379
-89.26156
-95.14542
-96.64652
-102.62175
-101.46604
-100.06375
-104.13616
-102.94008
-101.19966
-97.48276
-100.14001
-95.30327
-89.80784
-92.92619
-98.84592
-100.69381
-97.30742
-93.45532
-96.09976
-104.35431
-103.55746
-99.19181
-97.07371
-96.62936
-96.56827
-97.04723
-96.95124
-95.23139
-96.60712
-98.88324
-103.78895
-94.78539
-100.99829
-94.69437
-88.40422
-94.71609
-98.69784
-92.15273
-90.06826
-88.88077
-88.88511
-94.61215
-94.21994
-85.04374
-86.27098
-82.09833
-82.45372
-85.86117
-85.84916
-81.06934
-87.70611
-81.86607
-87.98409
-89.34417
-93.96322
-95.85532
-90.70896
-92.78967
-88.80825
-94.27290
-91.83238
-88.12246
-82.81401
-83.69497
-94.90366
-95.52699
-94.18914
-89.26171
-93.17857
-89.70629
-85.17903
-81.81023
-86.63276
-90.53512
-90.79340
-88.11832
-89.15957
-89.20625
-90.64292
-87.07292
-88.77724
-86.86395
-88.89281
-94.86768
-95.52450
-90.15828
-91.95697
-98.69122
-86.56884
-91.63094
-93.24360
-93.94393
-94.75996
-91.54554
-92.47720
-87.99390
-85.47215
-95.45076
-98.67841
-85.36046
-85.75252
-89.01748
-86.96179
-89.75895
-86.71883
-91.92590
-91.09533
-90.93409
-92.57398
-87.45913
-93.96874
-92.71873
-93.72040
-90.61801