-92.35996
-99.49019
-96.79283
-101.33481
-99.24546
-104.41598
-99.16950
-96.87622
-92.66979
-95.13855
-95.60200
-95.10572
-96.06451
-88.74417
-91.63669
-100.29109
-94.73660
-88.88969
-86.49472
-90.05348
-99.15732
-105.66446
-102.20799
-101.05846
-109.73298
-111.02367
-108.05941
-110.79075
-106.96777
-101.09420
-102.33113
-97.19825
-103.57632
-108.99936
-104.22950
-106.94636
-109.09472
-96.97206
-105.52998
-99.80624
-98.62278
-103.97519
-102.97576
-101.40849
-100.22486
-97.21504
-94.38649
-88.99922
-88.56539
-85.89021
-82.25513
-90.26180
-91.85552
-96.55510
-95.28594
-96.40017
-89.84901
-90.80970
-87.51885
-90.24991
-95.29584
-94.64869
-94.47316
-98.07356
-89.87940
-89.99407
-91.84408
-91.96090
-84.78050
-89.36713
-95.66892
-84.90908
-87.90920
-90.61899
-78.85395
-93.34447
-85.78494
-83.19455
-83.70143
-81.68775
-75.26047
-66.30118
-70.40078
-69.26530
-71.49254
-77.39410
-77.44395
-77.93502
-79.43960
-80.70248
-72.36924
-81.20856
-81.96279
-87.14500
-84.07892
-89.80753
-82.61364
-83.28765
-83.78276
-82.12693
-88.75838
-86.63309
-83.47021
-89.12148
-85.97041
-85.59958
-75.71821
-78.16968
-72.62226
-83.10214
-80.38715
-77.38643
-75.41164
-72.33658
-73.52482
-81.60073
-74.38375
-72.81637
-76.33371
-75.85536
-73.56966
-65.45760
-61.45622
-67.26984
-65.39592
-67.69942
-63.58294
-64.29119
-67.47633
-58.06720
-58.86934
-54.39624
-62.19800
-63.37875
-72.21462
-69.94255
-76.03079
-76.79155
-76.05697
-67.84857
-68.82250
-70.92434
-69.60061
-70.91363
-72.29112
-69.97710
-68.65903
-69.68114
-67.20698
-69.80543
-65.65506
-65.22868
-66.37221
-65.70676
-65.16012
-60.20641
-67.48147
-67.22853
-57.13913
-63.09916
-60.72461
-58.31277
-67.11231
-57.68754
-57.37971
-56.53961
-62.73441
-61.64451
-55.55062
-52.84700
-50.92679
-57.11669
-61.75501
-58.67906
-58.57912
-65.85831
-56.18423
-58.71103
-59.04952
-58.35013
-54.19715
-53.09481
-51.36509
-54.71374
-57.14955
-52.32577
-54.52753
-47.40341
-52.90254
-55.18732
-46.07540
-50.39821
-49.86444
-54.98892
-54.16838
-48.68295
-51.64009
-46.90742
-44.56577
-42.50428
-47.87637
-38.20865
-34.20790
-36.81590
-34.84495
-39.53987
-37.13279
-35.30804
-45.22192
-42.49262
-41.05954
-39.11356
-39.84353
-48.14705
-50.45339
-48.57434
-48.72441
-40.57040
-37.57757
-40.09997
-42.01574
-49.32691
-39.61023
-43.82157
-44.01686
-46.80412
-45.82134
-43.33634
-38.38604
-38.91550
-45.20154
-51.72863
-50.48239
-43.36050
-43.64165
-43.20197
-44.56709
-43.05489
-46.73326
-47.64144
-51.61517
-46.06203
-45.83281
-51.49953
-54.51067
-54.23502
-47.25407
-44.44341
-48.01157
-47.13239
-52.98231
-52.72559
-53.39979
-57.11144
-52.08590
-53.51424
-44.01047
-46.83749
-47.46160
-56.27947
-44.95224
-39.06703
-42.80666
-38.40796
-40.20128
-39.88714
-40.70713
-41.14450
-38.53638
-42.41381
-37.96924
-31.52141
-35.21473
-38.93457
-38.30072
-38.75478
-38.88555
-36.14278
-33.28838
-34.82642
-37.78187
-34.39757
-38.29904
-34.74178
-41.19729
-32.14904
-40.11459
-40.76377
-43.73501
-42.35896
-40.50593
-44.07150
-40.47738
-31.69768
-34.37970
-41.72924
-38.49208
-40.28666
-41.69624
-40.82609
-42.58931
-47.27540
-47.23444
-53.10038
-48.41709
-43.51490
-51.16724
-56.48214
-57.67302
-53.77143
-56.27464
-58.52552
-62.86459
-65.11867
-56.36833
-59.34660
-61.76776
-59.49004
-48.92905
-50.00145
-50.81138
-45.18968
-38.78394
-54.37660
-54.33689
-60.81812
-59.92169
-63.24895
-67.16916
-68.44224
-67.32866
-61.52155
-54.74198
-57.48714
-60.58559
-63.52927
-61.56245
-63.59800
-71.64311
-65.51515
-67.33493
-68.86479
-72.98711
-74.74197
-72.24332
-69.54675
-72.39709
-74.83510
-69.37067
-66.62639
-58.23864
-46.99614
-47.09602
-54.39331
-60.36149
-58.24022
-53.51711
-60.30080
-55.82388
-58.38389
-53.91047
-55.26263
-61.53303
-65.01262
-65.03113
-63.76480
-55.14280
-61.64004
-63.95925
-54.28746
-48.41305
-44.78373
-45.14963
-42.44400
-46.46765
-54.53766
-54.24575
-57.30542
-54.32494
-54.80159
-58.56597
-47.99114
-48.38869
-56.72052
-50.76997
-48.64246
-43.21902
-43.77986
-40.08054
-45.86614
-46.71278
-53.06493
-44.89716
-44.28331
-45.50048
-46.60562
-47.96730
-46.53729
-50.06309
-38.57944
-47.64504
-47.28956
-47.18568
-44.67422
-43.12758
-42.89830
-46.52898
-38.25086
-31.43054
-33.89202
-40.24135
-39.86510
-34.54249
-34.46494
-40.69033
-42.00367
-41.41810
-50.41214
-53.97872
-53.72611
-48.50175
-44.84935
-54.46563
-49.17312
-48.57225
-50.49909
-47.41768
-41.95270
-41.36595
-48.52576
-45.96018
-45.57407
-50.85029
-49.64161
-48.87132
-49.23049
-47.42439
-46.79522
-43.21920
-45.43219
-40.68317
-40.54062
-40.98093
-40.54902
-37.08547
-39.00275
-35.97831
-36.85478
-36.70295
-31.26968
-34.70408
-36.22931
-36.13883
-40.62690
-43.06612
-40.08566
-44.55760
-37.73552
-36.84242
-40.86614
-39.66826
-41.40922
-42.24655
-43.97077
-42.94774
-46.74118
-42.51488
-41.24131
-45.80454
-46.54687
-48.00841
-43.39886
-46.25762
-39.43201
-49.36880
-57.36379
-56.01565
-51.63564
-54.70018
-49.07842
-52.29832
-59.84980
-57.24817
-56.36207
-55.64902
-48.94920
-51.45835
-52.43870
-54.16109
-48.81963
-53.27625
-50.52487
-47.85477
-52.33770
-53.99995
-58.17569
-53.54315
-49.48402
-50.39376
-54.89323
-52.32999
-49.01180
-39.54523
-36.54240
-52.32003
-51.96191
-44.60016
-43.46042
-36.29367
-46.49166
-47.69084
-47.94053
-47.36271
-46.24700
-46.46967
-40.05392
-44.41363
-44.27688
-43.18631
-38.61189
-41.93665
-46.02561
-38.86044
-41.94328
-39.45304
-35.43413
-37.64191
-37.41128
-35.43225
-31.30975
-37.24048
-38.69337
-41.42479
-39.12464
-35.78502
-35.22243
-41.88679
-41.90726
-39.60842
-36.11040
-34.44099
-37.29218
-40.96724
-44.21759
-48.30507
-43.70022
-43.86297
-42.90500
-39.76418
-38.94275
-51.93311
-62.84220
-53.93482
-43.32581
-55.62915
-56.63290
-58.24602
-53.19150
-44.79922
-43.61997
-43.72657
-41.67717
-45.59214
-38.89742
-34.45380
-40.92702
-40.53075
-39.86040
-42.87588
-42.52650
-44.22006
-49.11212
-42.50337
-36.49218
-39.64766
-34.93123
-33.94967
-28.32777
-33.70345
-39.00532
-34.80355
-27.87429
-31.94162
-25.90723
-23.53384
-23.70719
-25.51890
-25.88598
-22.55559
-18.59249
-18.46498
-22.64211
-22.81919
-24.83660
-22.51151
-28.55066
-25.34377
-24.61226
-27.18335
-22.09724
-22.88261
-17.64295
-21.80238
-21.75548
-21.63598
-18.37575
-11.38409
-5.72444
-14.84851
-19.65860
-11.88309
-15.20606
-11.35406
-19.30042
-23.42134
-20.29421
-15.92906
-12.75240
-16.93615
-23.49455
-17.47250
-20.32815
-17.26730
-9.74598
-11.15076
-13.80999
-9.39898
-14.41503
-13.85613
-9.86860
-14.14255
-18.03172
-12.43516
-12.28099
-20.89753
-23.16069
-19.32076
-20.39146
-19.95038
-20.03657
-12.73411
-7.83430
-12.42703
-15.23243
-8.86483
-6.18215
-11.54224
-10.88260
-7.88420
-8.64605
-10.74805
-9.71851
-12.55200
-10.88639
-13.17917
-11.72132
-8.76556
-5.63959
-5.83401
-4.70528
-4.94753
-10.32614
-10.47885
-11.48683
-10.32741
-8.18747
-0.99963
-8.98732
-10.79668
-5.51169
-7.70124
-8.86144
-4.42650
-2.46598
-6.34742
-10.61740
-19.20137
-20.49065
-8.65697
-10.45480
-5.67981
-2.77717
-1.58855
-6.17548
-8.38681
-12.03870
-11.30298
-6.18274
-3.85868
2.45566
-1.17223
-8.85790
-2.50228
-3.24764
-4.42673
1.12957
0.99002
4.94506
3.03062
1.16952
-4.89648
-0.12221
0.54188
-2.60909
0.82694
-0.92070
-2.16416
-1.20698
-1.78996
-0.65948
-4.45253
-7.62140
-7.51037
-8.18152
-4.71754
-9.19273
-3.69387
-6.14682
-5.60343
-2.57895
-10.22397
-2.41118
-7.43406
-9.74567
-3.25027
-5.31387
-6.80410
-12.81428
-11.71851
-14.98092
-12.77548
-13.75724
-10.19890
-8.69321
-9.52608
-4.51195
-12.91230
-10.26087
-9.84365
-6.59794
-11.15517
-16.00468
-8.70507
-9.92986
-6.18682
-11.55448
-9.30056
-9.64297
-10.82565
-11.15979
-6.88625
-6.69054
-13.04534
-14.06110
-19.15763
-10.66775
-20.90401
-16.11861
-16.56672
-14.02282
-13.26559
-14.34224
-15.26665
-18.34052
-12.77262
-10.25719
-10.91167
-10.34261
-14.01622
-12.11410
-8.54719
-13.20105
-17.96325
-14.71975
-10.70380
-11.49063
-10.27444
-12.62442
-18.19724
-10.18754
-0.84065
-2.03929
-13.87912
-9.73368
-11.59247
-9.95013
-15.54400
-10.18451
-11.19247
-10.68376
-15.75950
-14.40743
-13.50786
-7.91858
-14.84502
-9.04584
-6.56654
-12.90942
-10.45438
-12.85791
-11.31971
-10.82361
-8.50744
-7.86129
-4.80809
-6.54205
-7.75774
-7.71728
-8.98869
-3.48847
-6.59089
-2.09171
-1.53378
-4.69312
-12.08447
-11.31044
-12.95099
-8.03471
-13.83565
-19.37982
-4.89120
-1.74013
-4.89129
-8.26315
-10.51992
-8.31255
-2.67842
-1.92443
-3.41399
-4.68178
0.51779
-3.47180
-5.97658
-6.71913
-3.88596
-2.03244
-2.53463
-4.38613
-2.56164
1.41875
-0.39090
-8.79281
-7.99595
-4.78005
-4.26764
-6.84961
-11.73342
-6.87903
-11.32568
-4.36382
-9.94224
-9.41920
-7.38676
-11.07528
-5.26083
-10.18978
-8.16661
-13.42145
-10.81863
-8.10117
-16.52485
-16.97487
-18.94553
-16.08294
-10.24309
-7.07434
-11.43911
-10.23351
-14.13761
-7.28569
-11.92227
-7.31529
-10.41528
-13.68502
-15.67636
-14.39174
-9.52596
-9.08029
-11.66194
-5.70202
-7.71637
-10.75664
-10.45443
-5.81219
-8.15935
-8.02425
-9.14951
-11.97780
-11.34725
-9.81363
-7.42629
-14.59825
-6.64466
-4.60414
-1.93898
-3.92255
-4.01573
-1.90454
-1.96001
-0.55316
2.41542
3.81967
3.55265
2.81316
2.34330
-3.75383
-7.12343
-3.44236
-2.64281
-6.93460
-3.28688
0.46598
-5.26555
2.29226
-0.25734
-4.66282
-1.09336
3.45149
-2.25270
-4.11786
-4.11516
-7.51259
-7.19386
-1.61790
-9.10227
-4.67269
-6.44864
-2.10615
1.75145
-0.35295
-2.55112
-0.93915
4.25251
-1.74296
-10.20454
-10.99002
-9.80441
-17.41122
-8.60988
-3.90846
-6.11818
-10.89783
-5.77756
-9.62995
-3.22273
-2.29335
-4.93300
-5.54786
-5.16408
-7.38882
-9.00454
-13.23679
-15.76679
-14.75630
-9.86410
-11.53471
-13.67293
-11.90726
-8.61128
-8.85631
-13.60223
-11.07601
-17.56256
-15.07355
-16.32398
-18.88040
-20.20149
-16.01350
-8.55119
-10.05106
-8.63235
-10.65661
-8.09809
-10.57039
-11.26254
-11.44040
-10.99587
-8.15212
-3.66065
-7.43286
-5.16578
-10.45179
-10.35761
-9.87439
-13.72293
-11.79520
-14.27112
-22.35342
-23.34576
-23.69140
-20.24502
-19.06145
-18.00220
-11.52499
-13.31612
-14.57063
-16.27281
-14.74656
-10.38091
-11.29066
-7.40415
-9.94339
-7.53608
-7.37361
-4.75629
-5.87572
-2.77409
-2.25835
-2.18467
-2.07450
-3.55095
-4.66227
-6.41096
-4.97075
-6.38237
-4.07217
-3.00701
-6.04014
-2.98399
-10.62486
-5.60447
-1.74757
-4.54487
-4.04340
-2.43141
-4.16547
-6.55170
-8.60983
-10.66035
-8.77056
-6.98891
-8.00218
-10.29768
-3.36071
-1.11898
-2.37365
-3.19858
-1.05359
3.17935
-0.83492
-2.44691
-10.43671
-5.15875
-7.56791
-9.60101
-7.97467
-4.43000
-11.60766
-13.26863
-11.59572
-5.45421
-3.05240
-3.61340
-6.48360
-3.15865
-1.34765
-4.33780
-2.56944
-3.63564
-3.85767
-2.77190
2.24075
-4.16092
-11.12456
-9.52644
-6.85020
-10.55829
-9.14937
-11.77583
-11.27507
-5.53473
-5.44120
-5.10655
-2.06363
-2.30868
-2.16103
-4.93719
-3.33657
-3.96043
-2.60147
-0.50647
-7.48543
-0.54983
-7.24277
-4.39722
-5.90645
-2.71923
-3.93266
-2.04151
-8.48149
-4.28353
-4.74216
-8.73954
-5.52684
-5.17437
-7.12555
-5.09994
-6.51802
-4.87388
-0.81216
-8.31480
-8.25297
-5.66578
-9.08127
-3.67891
-4.75500
-1.10926
-8.60965
-11.93283
-5.98422
-5.59800
-7.57762
-9.56112
-10.94904
-6.68519
-4.57943
-7.26262
-4.73972
-8.12006
-10.43053
-4.82793
-10.02285
-6.77426
-9.41483
-16.41512
-10.29329
-11.97633
-13.41365
-12.56100
-11.85929
-14.13979
-15.93470
-18.60063
-12.21502
-12.80416
-16.23077
-17.51490
-13.99744
-12.92568
-13.40916
-22.87533
-14.50018
-11.51482
-3.12243
-9.44616
-16.96883
-12.06422
-16.75801
-20.94763
-19.46208
-17.69499
-23.76811
-31.31182
-34.52396
-30.81344
-24.08028
-18.24791
-18.84849
-14.37216
-12.34536
-17.59468
-15.24749
-21.45293
-27.25436
-23.14334
-20.86096
-17.26122
-11.27045
-17.33461
-12.92059
-12.82199
-11.45468
-5.72653
-11.77921
-6.59500
-7.53246
-7.48781
-9.63966
-6.37637
-13.72563
-3.35762
-7.02086
-5.25094
-5.86150
-7.31762
-9.52050
-9.08624
-9.60170
-4.59095
-5.70624
-3.59127
-7.26214
-8.46460
-9.68603
-18.54183
-9.22363
-11.46366
-13.38478
-8.86706
-12.51745
-11.25518
-6.18379
-11.24142
-15.45828
-11.05000
-5.42543
-9.11922
-8.78872
-3.42073
-6.57031
-11.21865
-11.89557
-4.12370
-14.74885
-14.90464
-16.82998
-8.18167
-9.60164
-11.34313
-8.27126
-14.35610
-13.56660
-14.18533
-9.46398
-7.89998
-5.88021
-8.89814
-13.15674
-11.82749
-11.76901
-10.15468
-10.29797
-18.16683
-20.02307
-18.15086
-19.14889
-16.98940
-13.98514
-11.89026
-15.85894
-10.73194
-11.70290
-8.34610
-10.26532
-11.22191
-15.47231
-15.34936
-12.72381
-14.71053
-10.58941
-16.69877
-15.06583
-12.07207
-15.45842
-17.38979
-10.90728
-7.63962
-11.35373
-10.90966
-12.09218
-12.42438
-17.14992
-13.26672
-15.57995
-12.72638
-3.16285
-15.36615
-13.37392
-16.58320
-12.06106
-7.09745
-6.36916
-10.16533
-11.26888
-12.13956
-14.80132
-14.98955
-14.73008
-18.82424
-24.59880
-18.58114
-16.17979
-19.24542
-18.49694
-16.61294
-7.84790
-8.07395
-10.49389
-14.14974
-14.39171
-15.06197
-18.43193
-25.48076
-22.97761
-19.85358
-21.55589
-23.57879
-19.47490
-19.95797
-19.66393
-25.03212
-23.39022
-21.55731
-24.80852
-27.98653
-23.82264
-21.41136
-22.08783
-20.02541
-19.47106
-21.75176
-19.65146
-20.69955
-18.71732
-22.40095
-14.64856
-20.85273
-22.68778
-21.17151
-27.88608
-29.22496
-27.31918
-28.03585
-33.43359
-31.05425
-36.49822
-34.11310
-31.18102
-32.10545
-32.36615
-26.65176
-24.81682
-27.39557
-28.10403
-23.57664
-22.79542
-28.02530
-31.93575
-34.56897
-31.25193
-33.01586
-26.83311
-33.96518
-30.81104
-30.68772
-31.12785
-24.38164
-26.30443
-23.85399
-24.53460
-24.59303
-25.71869
-23.62081
-31.26342
-29.20121
-23.84778
-23.90978
-24.14037
-26.59604
-33.96150
-29.44891
-29.16413
-26.23805
-31.29465
-30.79454
-31.12128
-30.90107
-30.74196
-32.47575
-31.52214
-30.30954
-24.71956
-29.16359
-31.76665
-31.45816
-31.46133
-32.36492
-36.84973
-41.40262
-41.10393
-46.47210
-44.08018
-40.43300
-44.09246
-44.26377
-42.06216
-34.52482
-40.61939
-33.85064
-29.35862
-35.98141
-35.36941
-45.16642
-44.25968
-34.93413
-33.03912
-36.51550
-32.61857
-40.59692
-35.59387
-40.22158
-38.66865
-36.29888
-40.53410
-31.82529
-34.66866
-30.77185
-25.08922
-31.97340
-37.01102
-35.46204
-36.93746
-31.71050
-29.63875
-29.96735
-28.52048
-36.80833
-33.54093
-30.04597
-42.86530
-34.05031
-32.12680
-34.31296
-41.69142
-31.38841
-33.01525
-28.84101
-26.85699
-28.67380
-29.07800
-34.23234
-30.12107
-33.07099
-30.30731
-33.05892
-32.23504
-31.27982
-31.87700
-26.93610
-24.89284
-29.42044
-18.01552
-31.19428
-39.05590
-41.04606
-38.21495
-34.31108
-35.18105
-29.48787
-28.54915
-31.38842
-35.50064
-31.13927
-26.73190
-33.07021
-37.85756
-42.36815
-35.01177
-28.32783
-28.82513
-24.13030
-34.77216
-33.78982
-26.85454
-30.94104
-26.40575
-24.78668
-32.43184
-33.42081
-23.38183
-31.80186
-31.69586
-33.59490
-33.37468
-37.35789
-40.86789
-41.55661
-43.68022
-43.49208
-41.32362
-45.42649
-41.60627
-45.56835
-41.04424
-46.85363
-38.15062
-42.49683
-37.21672
-46.73483
-41.23008
-40.44638
-46.45101
-47.57008
-43.38855
-47.85633
-49.26502
-34.67388
-40.80780
-45.68147
-37.01245
-42.04063
-37.11473
-37.99922
-39.43666
-44.89516
-53.15402
-47.60741
-45.61058
-46.97267
-43.15189
-44.71818
-50.75529
-45.91085
-39.82308
-38.53107
-48.95900
-42.74458
-41.64794
-48.42591
-40.36170
-43.87722
-38.71457
-30.74304
-31.45054
-20.72854
-28.47202
-24.57877
-31.84452
-36.64608
-36.34701
-32.79948
-35.23120
-31.94570
-32.36253
-38.77418
-35.65604
-26.85575
-36.35456
-31.97101
-37.43262
-29.64479
-23.58859
-18.66849
-25.97654
-26.74472
-29.42917
-28.68440
-25.93412
-27.79455
-34.92685
-29.95058
-32.97727
-28.31181
-22.68627
-24.04188
-24.65864
-24.42415
-24.25319
-25.99926
-26.48632
-27.35012
-28.88479
-27.97228
-28.68202
-25.80572
-33.71564
-28.51011
-29.23402
-22.11225
-20.05187
-26.67432
-15.37476
-21.65006
-24.27525
-15.97738
-20.98277
-21.43010
-17.61755
-18.59901
-17.79303
-23.27077
-29.93781
-24.02354
-28.69159
-19.17096
-15.05653
-12.00513
-12.52256
-10.77694
-14.64285
-6.37516
-10.75683
-11.98419
-12.58982
-13.26366
-12.56362
-15.16933
-11.10959
-6.02503
-13.29426
-8.44669
-13.58055
-13.65404
-13.81859
-12.75497
-12.11672
-12.72760
-18.86613
-13.54190
-15.69899
-17.13725
-16.54607
-23.69367
-18.58944
-21.28561
-24.48422
-17.38699
-16.89479
-16.92816
-12.52255
-14.91405
-16.01905
-14.09877
-15.77111
-24.76384
-22.02472
-25.75215
-25.47762
-25.52572
-22.85206
-35.21368
-30.04137
-26.19751
-20.83286
-15.91191
-19.10362
-29.32721
-28.13166
-25.96474
-35.10782
-36.02284
-35.20545
-32.70033
-27.94418
-26.82018
-25.42829
-22.83450
-21.06192
-21.40032
-20.16951
-22.90440
-18.64309
-22.59494
-18.18116
-20.33757
-19.34899
-19.43045
-17.98654
-17.94958
-21.55640
-19.88897
-22.74136
-25.00205
-22.62011
-23.50833
-26.57831
-27.48926
-29.08355
-25.69895
-19.49440
-21.78282
-22.27113
-18.10689
-25.79478
-23.54414
-19.15290
-20.70245
-18.53770
-17.72871
-25.69035
-24.95270
-20.86956
-23.29459
-27.84429
-22.65522
-18.33432
-21.55868
-18.87328
-28.06995
-33.61575
-35.60900
-33.92105
-28.23332
-31.79158
-19.65593
-16.81737
-14.14264
-19.15472
-26.54605
-24.50151
-25.85722
-23.70251
-26.64203
-26.72059
-15.70919
-22.81363
-24.36344
-23.37243
-17.34591
-28.62587
-26.58542
-24.57941
-21.98068
-23.35479
-24.29936
-19.34309
-14.50944
-20.25103
-16.94116
-21.00543
-29.70326
-27.32587
-27.95116
-25.58591
-25.23901
-30.86249
-28.57262
-35.92542
-36.86577
-33.99248
-31.00237
-24.97147
-36.26627
-37.81678
-37.67258
-36.85393
-46.04187
-44.96990
-50.84712
-40.53781
-41.39841
-40.92950
-41.59184
-42.45576
-41.27447
-38.63393
-30.05255
-37.27533
-34.28377
-34.35642
-33.21306
-30.47824
-27.49260
-28.93245
-28.50662
-32.56199
-32.91046
-34.63197
-31.49449
-31.93433
-32.63296
-33.46587
-28.43592
-34.88679
-32.31336
-32.99294
-39.66906
-41.53284
-39.90886
-41.33880
-39.83263
-35.93700
-40.92109
-41.05928
-33.24051
-30.08660
-34.36979
-37.21799
-33.76930
-35.97587
-35.53400
-37.25579
-34.61716
-27.43733
-25.48125
-27.47387
-24.25158
-21.07318
-25.98798
-19.01719
-20.24341
-18.36941
-14.28632
-20.07780
-18.11472
-19.76454
-26.17583
-33.75377
-22.66755
-26.68629
-22.96234
-16.54749
-15.15549
-18.34503
-22.52615
-19.90719
-22.11606
-18.63161
-18.69142
-23.82743
-24.65266
-22.72891
-23.06049
-21.63710
-16.41415
-15.14987
-14.56924
-18.57944
-22.34233
-23.11607
-23.15921
-21.28629
-15.94720
-14.36465
-14.32857
-16.29349
-12.42496
-18.67643
-9.33880
-14.11410
-21.21190
-21.46697
-27.32148
-21.07170
-17.91316
-15.59787
-21.23953
-22.18442
-23.41917
-20.66193
-20.00294
-15.56424
-19.73410
-20.03593
-24.34721
-23.54532
-24.17653
-27.60603
-21.41478
-25.80705
-26.80670
-26.61703
-26.21302
-21.07272
-20.53388
-17.41088
-29.19403
-26.91414
-29.12284
-25.61821
-11.21113
-17.83937
-21.50274
-16.04436
-15.54041
-17.71020
-20.18884
-20.96717
-20.13304
-15.48785
-15.43361
-13.21417
-17.00933
-20.47044
-17.12588
-17.11160
-17.96820
-21.36698
-26.36072
-19.87080
-20.86896
-20.24309
-18.22711
-19.04902
-19.57427
-17.58037
-12.93196
-18.15231
-17.71212
-15.15374
-14.45184
-11.79315
-11.18288
-16.81712
-11.65938
-10.70745
-12.52541
-6.76002
-4.97263
-8.19607
-12.63126
-13.06568
-10.34396
-12.77043
-13.85483
-4.06797
-7.82200
-14.31535
-9.83747
-11.34601
-17.03202
-13.73457
-8.67484
-10.80805
-10.43791
-9.55671
1.49910
-6.21712
-16.11180
-15.15635
-13.53606
-7.09037
-1.43557
-5.73778
-0.88990
1.66681
-1.16235
1.20755
4.42227
-0.50221
-4.72377
-8.53705
-7.24962
-3.65081
-8.43345
-2.03464
-4.25148
-2.59983
-8.97231
-9.06864
-2.89932
-1.20514
-5.47360
-5.42285
-3.52395
-8.73158
-8.30195
-5.85632
-5.04146
-1.18793
-5.48418
-2.48114
-2.89625
-6.78286
-4.30628
1.42353
1.73873
-3.59209
-1.96372
-10.28153
-8.11500
-13.88837
-4.20000
-3.70919
-1.71479
-4.90903
-0.81261
-3.22293
-3.71920
-0.04505
-3.39633
-6.53014
-10.35775
-2.38416
-5.39159
-3.40738
-5.99719
-3.17894
-1.75217
-2.28250
-3.24938
-0.94420
-5.26917
-2.49624
-6.96773
-5.21279
-7.78458
-9.75919
-5.66464
-7.37442
-7.46616
-14.75749
-10.33755
-13.01782
-6.00250
-3.09417
-3.64834
-4.16670
-3.59641
-10.40030
-18.23516
-8.06732
-9.20805
-20.70858
-20.47866
-15.36998
-17.06954
-12.04869
-15.31232
-17.04871
-20.78724
-15.12816
-17.66629
-22.02177
-18.79217
-16.31969
-16.04740
-17.68871
-14.65155
-15.06995
-18.69728
-15.28393
-14.63463
-17.17286
-20.69244
-16.05669
-8.12030
-14.15287
-13.44313
-14.04206
-20.35155
-16.10052
-19.59277
-18.45546
-22.20454
-17.24819
-13.69137
-12.43166
-16.94625
-13.56769
-13.28138
-12.91292
-19.13859
-18.31865
-14.36483
-16.98180
-17.60352
-11.94726
-19.15882
-21.23523
-21.16022
-25.58821
-27.65661
-26.98884
-25.53468
-21.50840
-20.65303
-21.98147
-19.63334
-22.79234
-20.45312
-17.39277
-17.18075
-21.46144
-23.25684
-19.34506
-24.80609
-29.37197
-24.42845
-23.47665
-22.52830
-28.17086
-23.49728
-23.04162
-13.65853
-11.00618
-13.64887
-16.63940
-15.67967
-15.48484
-21.34191
-23.94069
-17.12173
-18.65548
-17.62563
-23.70344
-25.22420
-29.49738
-27.44922
-25.97845
-22.73534
-16.72126
-23.75614
-24.57345
-25.35014
-22.42833
-26.45556
-26.28538
-23.74343
-23.34297
-14.84788
-20.69058
-18.72266
-16.24054
-22.97608
-17.99003
-15.42521
-16.56190
-22.44084
-21.30342
-21.02327
-26.66274
-21.07181
-19.95840
-19.83806
-19.26162
-17.38056
-19.70441
-17.32899
-19.96664
-10.88648
-14.75803
-13.74970
-20.67995
-16.47714
-13.57520
-12.38468
-15.10324
-8.95798
-13.81338
-12.61583
-7.85227
-8.98464
-10.16323
-1.74136
-10.43858
-12.81261
-15.83174
-11.93349
-8.00905
-5.71644
-10.29404
-2.82985
-7.12982
-5.51082
-3.51292
-2.61716
-3.63565
-1.60387
-3.57287
-1.61762
0.65119
-5.25942
-9.10514
-9.54450
-13.56149
-6.52094
-2.40028
-11.96122
-9.94752
-18.00959
-14.74016
-15.96190
-9.31798
-8.76804
-12.29613
-11.40715
-16.34203
-17.19965
-11.12066
-5.53910
-11.82849
-10.90693
-7.51505
-9.53989
-8.63933
-2.66719
-9.37115
-8.68999
-7.24824
-6.51390
-7.49972
-12.07269
-16.92588
-12.93633
-5.99439
-10.38571
-7.51205
-11.92157
-9.14700
-14.07737
-15.74912
-22.16435
-20.57743
-23.00145
-22.83531
-19.80276
-19.59662
-20.38934
-18.20873
-15.43269
-11.63417
-14.74957
-18.17506
-15.03561
-18.05735
-16.76455
-18.45525
-18.88102
-13.79373
-17.78282
-14.50464
-14.98989
-13.01695
-17.43914
-13.00232
-16.27356
-17.72531
-8.02603
-8.17342
-10.60995
-12.04321
-6.79388
-12.33803
-9.25859
-11.42293
-7.82000
-5.51704
-6.15168
-6.77740
-6.59917
-12.27126
-13.73360
-13.65053
-16.32828
-16.48163
-13.68443
-15.31118
-14.95162
-7.56614
-11.63864
-7.14842
-7.88359
-11.02365
-20.12937
-13.03585
-8.46012
-8.72277
-9.62855
-11.36738
-6.16731
-2.62276
-4.44858
-0.00506
-0.98455
-6.16672
-4.63767
-4.24748
-4.72960
-1.48582
-5.46964
-2.75368
-0.20029
-5.17737
-4.68573
-2.41384
1.64548
0.45708
2.51833
2.83478
-1.05828
-3.21381
-5.03365
-0.06708
2.31703
1.13783
-3.29760
-0.28847
-4.63944
-3.18162
-5.51520
-3.21713
-6.51806
-4.47962
0.78557
0.13172
-8.69981
-5.06996
1.47696
1.84658
5.40951
1.10676
-2.68114
0.01063
-0.16085
-0.61400
-0.14550
0.30881
-10.84910
-11.29545
-14.54445
-15.26815
-14.10823
-17.97809
-17.17458
-16.45351
-11.12456
-7.15165
-6.04410
-9.14602
-13.85572
-11.11854
-11.41937
-12.66960
-13.89429
-12.33609
-6.71698
-10.95305
-6.26037
-6.52455
-6.10962
-11.03228
-10.68452
-13.06618
-15.53221
-11.39596
-12.12484
-10.25759
-9.09145
-12.41678
-3.43864
-8.27008
-16.48158
-12.78755
-9.72072
-3.39824
-3.75921
-13.40157
-14.80086
-11.45454
-10.36446
-9.20036
-4.36084
-10.85568
-6.13103
-3.28353
-4.56790
-6.47798
-3.65926
-5.93879
-8.68305
-7.61410
-8.39346
-9.32194
-9.19088
-10.27563
-7.74343
-5.63627
-1.69436
-4.51292
0.21746
1.93123
-7.65186
-3.92698
0.76223
-2.41713
1.16438
-3.05374
-3.73957
-2.46178
2.39450
-1.56987
-6.16433
-3.24657
-1.61431
-3.28105
1.56190
-1.68701
-3.56526
-3.49839
-6.66338
-3.16689
4.13914
1.42094
-6.92599
-6.02718
1.88515
2.60410
1.99380
1.76545
-8.17523
-9.47390
-6.97390
-3.24487
-5.23466
-8.16382
-10.64435
-16.13154
-11.80457
-12.32004
-12.32917
-4.45793
-4.99317
-5.35688
-3.98554
-7.54792
-7.73367
-10.14343
-8.96594
-15.33551
-18.44901
-10.78816
-8.49780
-12.26777
-10.79443
-11.63988
-9.82982
-15.17862
-9.65966
-19.94298
-16.87905
-15.91073
-15.81665
-13.47603
-13.57576
-12.56209
-18.01533
-8.85657
-8.39521
-16.28316
-22.88321
-19.64140
-26.89644
-18.49338
-23.45626
-22.52842
-21.83219
-16.34192
-13.27346
-11.20165
-17.69866
-20.73080
-14.46882
-15.43681
-18.33489
-24.47796
-22.00929
-20.68703
-21.39995
-12.53370
-13.98960
-14.72831
-16.88396
-10.83475
-11.21993
-11.57677
-10.81672
-11.14419
-10.33881
-5.57098
-9.16046
-4.08883
-9.91484
-11.46230
-6.29291
-4.07987
-9.20398
-10.29220
-9.66546
-10.13192
-13.71648
-6.62281
-11.87445
-9.88248
-7.53102
-13.98352
-8.01515
-8.16027
-4.42360
0.68167
2.69423
-3.21051
-3.49226
-0.87310
-4.50802
0.52399
-4.28740
-1.89831
-12.15817
-4.86767
-7.06502
-0.87846
0.44265
-6.14338
-6.06667
-7.28873
-8.18467
-5.90229
-4.09746
-13.26183
-13.24965
-11.54213
-12.80416
-13.00456
-9.82203
-13.50050
-10.65366
-11.35261
-8.49082
-13.04555
-14.96978
-22.88450
-15.96997
-15.73247
-18.43026
-8.65350
-16.21993
-9.03383
-15.64178
-11.98654
-11.63814
-10.94347
-8.82008
-8.81558
-11.81091
-9.49874
-6.68222
-6.03082
-11.13271
-13.20560
-12.08944
-8.49279
-9.12691
-17.11521
-15.96680
-13.36627
-13.58725
-10.51261
-17.68339
-16.50197
-14.60601
-13.89646
-17.26856
-19.82080
-18.53841
-16.85964
-17.31607
-14.74589
-17.05769
-22.86439
-25.90735
-25.42499
-26.65011
-18.65524
-12.31981
-14.22194
-21.35588
-15.11253
-16.93845
-12.58404
-21.30199
-21.37561
-13.71179
-15.90624
-16.60411
-8.00534
-12.63773
-16.93982
-17.73610
-18.48442
-18.32500
-15.51115
-17.47863
-23.69457
-19.30418
-24.20052
-24.35851
-23.58918
-14.74288
-15.50001
-13.32694
-18.79568
-14.35935
-18.83771
-21.12587
-14.42384
-13.26967
-15.82058
-18.13422
-12.84575
-21.82809
-31.10165
-29.28343
-27.34914
-27.10813
-28.21044
-22.11339
-17.48925
-19.81229
-18.50833
-16.34474
-12.62356
-10.49411
-15.51747
-12.17659
-14.48513
-18.60132
-25.12300
-20.40879
-14.48071
-12.95313
-19.19532
-26.05689
-17.10110
-14.18696
-12.06236
-5.68646
-6.80153
-10.04837
-13.59383
-12.85017
-3.21241
-2.04388
-4.38915
-9.80960
-13.08480
-10.79069
-12.55139
-14.99690
-11.10898
-5.22389
-11.40165
-14.13281
-8.61774
-10.85755
-5.59139
-10.84616
-5.79395
-1.47048
-5.44719
-2.77814
-6.45422
-9.28182
-9.20128
-14.79665
-9.70965
-9.40126
-8.39060
-4.20702
-3.96641
-8.14490
-7.68499
-10.16216
-10.43835
-6.81804
-2.68149
-2.56785
-2.18658
-7.02178
-6.80070
-1.56145
-9.60789
-8.06669
2.15675
2.30801
2.58064
-0.65158
0.80641
-0.84431
-1.31285
0.40188
-1.00781
-6.45219
-5.02953
-1.76870
-7.35580
-1.88160
-1.48901
0.55100
-2.75056
-4.40818
-3.45456
-3.31182
1.25280
1.28674
-1.80381
-3.16888
-3.06892
3.58800
0.04651
-0.76806
-4.62470
-6.04491
-6.21490
-1.85872
-3.04176
0.11112
-4.05490
-9.25362
-0.01846
1.32542
-3.42268
-5.77631
-9.36441
-6.99749
-1.49386
-3.04384
-7.61122
-5.39851
-5.85093
-3.87920
-1.89768
-0.90736
-1.90894
-0.98144
-0.78125
-0.90067
-3.12966
-6.86119
-2.42362
-3.20755
-7.41928
-11.75631
-5.74617
-12.49821
-8.52555
-7.56885
-2.73269
-4.51625
-3.75156
-6.13888
-9.17478
-0.32009
-2.04257
-3.19879
-1.69830
-1.69897
-7.53719
-7.53589
-4.65715
-8.07286
-6.36690
-5.31446
-5.32346
-6.38316
-8.98838
-7.66465
-11.06404
-7.52662
-11.57916
-14.22692
-11.07338
-13.87186
-2.01279
-2.55059
-5.16270
-4.84336
-11.17789
-12.21436
-16.46689
-14.09923
-22.95243
-17.99208
-12.64409
-15.39112
-15.18315
-15.06954
-16.53752
-17.58185
-23.18202
-17.82273
-25.31054
-23.83129
-18.09159
-28.19406
-23.85178
-27.23398
-24.42915
-17.36099
-25.54020
-24.56031
-25.55363
-19.32093
-18.34186
-17.04767
-24.55927
-23.10050
-27.71021
-23.67027
-20.18480
-21.10876
-12.96793
-15.77643
-16.96937
-27.46708
-24.04921
-18.23869
-20.46601
-23.15180
-26.27271
-27.02839
-11.80056
-20.96506
-17.37018
-13.45944
-13.30394
-16.80319
-17.80493
-17.89579
-21.90193
-20.11859
-16.13571
-12.20655
-11.77282
-16.16356
-17.03556
-15.40775
-16.48134
-19.36837
-17.72860
-14.60997
-21.19266
-14.78615
-20.16525
-21.68117
-18.05826
-21.84948
-18.10343
-12.54878
-13.79750
-18.13877
-11.11422
-8.74169
-4.42524
-1.49777
-4.80034
-5.38659
-8.18168
-3.27939
-5.45749
-11.93648
-18.00030
-19.04451
-22.80449
-13.72472
-13.34166
-19.48923
-17.07837
-20.36878
-18.20349
-19.33727
-22.66147
-18.42131
-22.29528
-16.60228
-20.63006
-16.12052
-16.95805
-21.97102
-27.42625
-23.46940
-21.59610
-21.87748
-26.55629
-18.29584
-20.32922
-24.63050
-33.61664
-37.41985
-26.48952
-24.71890
-29.08800
-19.28504
-18.20011
-21.82284
-27.71325
-20.23521
-24.90213
-22.23913
-24.67806
-26.12589
-20.92233
-25.88309
-26.09351
-22.21712
-26.13039
-27.50406
-27.86504
-27.63609
-31.82316
-30.66526
-34.58090
-37.00933
-43.83111
-38.91616
-34.96728
-32.50848
-30.23628
-33.01378
-40.72580
-43.83793
-36.98008
-31.72432
-39.14975
-42.70678
-37.89453
-40.99341
-36.52944
-38.71072
-43.12130
-41.68154
-41.54599
-45.51464
-44.47604
-37.81576
-39.15026
-41.09185
-46.73293
-42.13673
-43.63957
-47.52226
-51.06928
-47.38060
-47.39416
-54.39228
-58.62387
-51.60779
-50.17704
-46.33403
-47.18431
-48.04799
-57.24837
-62.64442
-56.81580
-57.64154
-58.18047
-51.39980
-63.56216
-58.44947
-57.69187
-51.86093
-46.89357
-49.97266
-57.18202
-53.79919
-54.75354
-51.85903
-52.88202
-48.31328
-49.11994
-47.00296
-46.44926
-43.51796
-40.93413
-48.74363
-44.70205
-47.81405
-45.03641
-51.24010
-55.01218
-51.07960
-54.57415
-47.14216
-46.56122
-45.12845
-48.50066
-48.29606
-41.50987
-40.45073
-42.35042
-43.06274
-39.19620
-41.15360
-38.39224
-34.84756
-37.45896
-38.34685
-45.06760
-41.14202
-40.70326
-38.91258
-32.99910
-25.32185
-24.21692
-22.63231
-25.00583
-21.69686
-22.46940
-17.72691
-16.54567
-11.31299
-14.97182
-19.34237
-12.91214
-10.81827
-18.01448
-23.29723
-26.88340
-26.66515
-26.48730
-25.14392
-25.67693
-26.73185
-25.12519
-29.80481
-26.14606
-29.71829
-26.37039
-32.56080
-32.57167
-30.27389
-28.35098
-26.33732
-32.72626
-33.56494
-30.73228
-32.00992
-28.28724
-26.73374
-25.92217
-26.23524
-18.59516
-27.77013
-22.30996
-19.17442
-22.40081
-16.92483
-15.82842
-23.32245
-19.26706
-25.93922
-21.45809
-24.13059
-23.70856
-23.36324
-21.15920
-16.77225
-17.32801
-31.31529
-32.65091
-39.46411
-35.40357
-36.27103
-33.14164
-20.70682
-25.79107
-23.19514
-22.83055
-27.35535
-28.88888
-29.77873
-24.21437
-26.74829
-24.53268
-22.33048
-28.82089
-31.14061
-26.80776
-29.95586
-34.85408
-31.34903
-32.38052
-27.69305
-29.25557
-28.16597
-27.45066
-18.97246
-23.01606
-23.60902
-28.72577
-23.43244
-21.58912
-25.47279
-25.74255
-28.03850
-21.11219
-15.80915
-18.15790
-20.38155
-28.36116
-19.31746
-24.17999
-30.10436
-33.03541
-24.50007