-20.61298
-24.81686
-18.04791
-23.67702
-24.23623
-27.81992
-18.39121
-20.61303
-17.91027
-19.83096
-19.33256
-25.31825
-23.45928
-20.87045
-24.31858
-30.10956
-23.84106
-32.05535
-33.08129
-24.55012
-26.50446
-18.12392
-19.80902
-21.79679
-19.55257
-16.84113
-17.97400
-20.10083
-23.36491
-19.39610
-22.77680
-19.08145
-18.39583
-25.44952
-21.90230
-18.18276
-20.37618
-15.63317
-21.07572
-16.35955
-18.04756
-19.31635
-19.22001
-19.68094
-8.95769
-11.54917
-15.95428
-15.33741
-15.52912
-18.16267
-12.56932
-17.69366
-21.22576
-17.04189
-21.10542
-13.28447
-14.23523
-19.80670
-15.91470
-18.02945
-18.37520
-15.93268
-16.06569
-14.19527
-10.18157
-16.26835
-15.07336
-15.71298
-16.59833
-21.00062
-18.82225
-17.18472
-18.40143
-15.28210
-16.19861
-25.34644
-22.11217
-23.70958
-19.24693
-17.71999
-16.92803
-12.61374
-15.07042
-21.13800
-20.96997
-21.97875
-21.50671
-24.36684
-25.66332
-25.44674
-16.75831
-16.11366
-16.67354
-20.17542
-17.04960
-18.46579
-18.31640
-19.39264
-16.62738
-15.71182
-21.59319
-25.85481
-25.71832
-24.72632
-26.43125
-23.81215
-22.14079
-25.80539
-27.85905
-29.53021
-28.70095
-34.25516
-25.96507
-33.00086
-34.35816
-42.77549
-39.69694
-33.61131
-31.84549
-40.21187
-40.19321
-39.11735
-43.22362
-44.74135
-45.83130
-39.98306
-38.36020
-39.37549
-38.33432
-30.29331
-31.30420
-36.42258
-34.01737
-38.55125
-39.23703
-37.11050
-34.56765
-39.46309
-44.88183
-45.33084
-42.32363
-37.68879
-39.68274
-31.96550
-31.88300
-36.29389
-32.57817
-36.02992
-46.24547
-47.35561
-48.40177
-49.30841
-49.35992
-43.80831
-34.71486
-35.22306
-33.29403
-33.93768
-32.28243
-30.51453
-35.18348
-31.37855
-35.44302
-32.46769
-33.88707
-28.56745
-28.56469
-33.22094
-34.86720
-28.42334
-30.40285
-26.89179
-29.84745
-25.82735
-21.84547
-21.10612
-22.82334
-20.12988
-25.37926
-28.95182
-25.97844
-26.88916
-25.86997
-20.56199
-22.61836
-24.60494
-19.27916
-23.39758
-19.56467
-21.95046
-25.28500
-22.46263
-21.23780
-17.84702
-20.11129
-26.20411
-35.28326
-38.61104
-36.44675
-39.27698
-35.59497
-28.45364
-23.28359
-18.99038
-25.83465
-26.00401
-31.38491
-30.00304
-28.77471
-34.50117
-30.87082
-35.04972
-36.43820
-27.32822
-28.38377
-20.15504
-22.28940
-12.90018
-10.63518
-15.35153
-13.99656
-15.66601
-16.62802
-14.77227
-14.48830
-20.75108
-15.97865
-20.88266
-19.67139
-13.62634
-18.84722
-13.19862
-10.48044
-8.20613
-14.71071
-22.18325
-23.69051
-19.78198
-21.47381
-25.97039
-23.83210
-21.69267
-11.53182
-15.22262
-17.48968
-10.34503
-7.46274
-18.83766
-24.16650
-24.08983
-21.94406
-22.69248
-25.88532
-20.35886
-14.37760
-14.81323
-15.89385
-16.03295
-14.43348
-13.07239
-20.13218
-22.61751
-16.96060
-18.94314
-21.82278
-20.35808
-26.85628
-15.23507
-24.17538
-22.17011
-18.70304
-23.49835
-21.03482
-21.31684
-25.00968
-18.24349
-11.21132
-18.16237
-23.20140
-19.81988
-23.93754
-26.93889
-25.76547
-17.30257
-22.33295
-24.06702
-22.20693
-27.40488
-27.95863
-23.64301
-19.41698
-15.21475
-14.20082
-10.51704
-7.09880
-9.64343
-12.69164
-13.39687
-11.45788
-10.35359
-10.30006
-12.13197
-9.06559
-10.90521
-12.66778
-14.45438
-12.49883
-11.20106
-23.82193
-22.67005
-18.12869
-23.79411
-28.14396
-22.02776
-20.94869
-20.44398
-20.70047
-24.09064
-21.45049
-16.63770
-11.92613
-11.96260
-10.71920
-6.09470
-13.74145
-16.10383
-9.92654
-6.95392
-10.06692
-12.50702
-11.38397
-13.24538
-10.07614
-17.39330
-15.12899
-8.95809
-5.35446
-5.56628
-9.05113
-7.45878
-5.45009
-8.47466
-12.28648
-10.33939
-15.85012
-14.61778
-19.56065
-16.04796
-9.35483
-7.78345
-10.16122
-16.38679
-13.74829
-14.83051
-10.03515
-14.21611
-11.31570
-9.72178
-2.25330
-6.69740
-8.15921
-6.81255
-8.95035
-6.64421
-4.19080
-4.72736
-4.40370
-3.83059
-4.37665
-6.54594
-5.20820
-3.14785
-3.35168
-7.73698
-6.37821
-0.81511
-9.65614
-4.10265
-0.20925
-4.88460
-7.89643
-8.76550
-6.70336
-9.01094
-10.92893
-6.21967
-5.98333
-5.88878
-6.64481
-8.33767
-1.75789
-8.16838
-5.41576
-4.45255
0.51425
-5.89019
-7.65970
-7.56632
-9.52390
-4.98724
-1.35342
-3.70457
-8.59211
-9.25123
-0.24164
0.82230
-8.58202
-5.90450
-4.65062
-8.59464
-10.41188
-15.38896
-6.96314
-12.16542
-8.37907
-8.14563
-10.88620
-9.53309
-9.92972
-16.83428
-8.83061
-12.49971
-8.11025
-9.99078
-9.02277
-7.84119
-5.56536
-11.74864
-10.32894
-12.81411
-9.49876
-12.49496
-10.83182
-11.92979
-14.82936
-12.37571
-13.12789
-17.90981
-14.01252
-9.90333
-18.98316
-17.96295
-15.38258
-18.70296
-17.53231
-11.13805
-15.04275
-14.40633
-14.80313
-9.01132
-23.47315
-27.31897
-22.71192
-18.32567
-24.55435
-23.21892
-21.04493
-16.75539
-17.92249
-16.86574
-10.10087
-15.33560
-16.12505
-17.55088
-19.20989
-20.60530
-14.72285
-10.65528
-17.34246
-20.61297
-18.15164
-24.91018
-26.01026
-26.73663
-15.53519
-17.96855
-16.18908
-19.59177
-22.40681
-21.19773
-24.51057
-23.73541
-20.66569
-18.87554
-16.52925
-13.53653
-11.94577
-17.01282
-18.76500
-25.06349
-21.39845
-21.01498
-18.55388
-16.31636
-23.36201
-19.79198
-16.26735
-22.99044
-23.32843
-26.13097
-24.52673
-19.25782
-20.22530
-25.34141
-16.49685
-16.22946
-17.90645
-14.37117
-7.28781
-7.09829
-6.36710
-5.98639
-5.46707
0.72069
-5.70859
-6.53687
-11.88123
-9.19533
-11.13337
-10.90858
-10.44266
-17.63399
-10.70407
-7.39135
-10.14986
-9.70716
-5.04185
-5.31049
-10.70298
-8.07054
-9.07171
-6.78255
-6.98086
-8.46932
-2.09486
-3.48996
-14.01748
-8.04479
-3.37103
-2.80605
-9.11244
-12.26411
-1.95080
-2.06009
0.15227
-5.44688
-4.09829
-8.95467
-11.51561
-4.69108
-5.47138
-8.65711
-8.39947
-7.50471
-4.76925
-9.65388
-4.98231
-5.46672
-4.16901
-4.05719
-5.58953
-5.33384
-6.04662
-4.37727
-12.62518
-12.52516
-9.00318
-18.54926
-13.21453
-12.66535
-11.37824
-8.10607
-9.39824
-2.93634
-1.77938
-8.91768
-9.63150
-12.10392
-13.77746
-10.42051
-15.80686
-12.22279
-11.20634
-7.15586
-4.52384
-5.70263
-12.03266
-11.54434
-10.58873
-5.81934
-11.55995
-10.71376
-11.21365
-13.93863
-18.72484
-11.63854
-10.66106
-14.37989
-14.26133
-19.53677
-17.85137
-17.30899
-18.08774
-13.52754
-13.68579
-10.88909
-9.17402
-7.33357
-9.43937
-17.64741
-15.71170
-12.15703
-19.55904
-14.34564
-11.75122
-9.88078
-14.91193
-16.76063
-21.51306
-20.09536
-26.42160
-23.79944
-15.68882
-24.68303
-25.59250
-27.14867
-25.50186
-21.24971
-20.26606
-16.37539
-14.93754
-15.22393
-23.62922
-14.71334
-10.94043
-25.03982
-26.90089
-30.60011
-27.50897
-25.71758
-24.21358
-30.89976
-27.20702
-36.65609
-40.48118
-33.82855
-22.47064
-24.26956
-25.29935
-32.21747
-33.10761
-32.05187
-30.67836
-35.72248
-39.65310
-32.62683
-28.89941
-32.11529
-35.98981
-36.87378
-50.62418
-52.53638
-48.43818
-47.81583
-44.18975
-47.49928
-45.95850
-45.26445
-42.47792
-32.40409
-37.06303
-39.99061
-39.18399
-43.83917
-41.20508
-41.93319
-42.90897
-40.61347
-36.92280
-39.22532
-39.89087
-37.49357
-35.97460
-38.67992
-37.84445
-37.98043
-35.68478
-44.35520
-30.50359
-39.62004
-41.07493
-39.30983
-44.58523
-43.39555
-40.01061
-44.45449
-39.24209
-43.98236
-46.71694
-42.43917
-42.51818
-45.10634
-43.46568
-38.23585
-48.06671
-39.92994
-40.68467
-39.53666
-32.63520
-33.46672
-38.75534
-35.33300
-37.94760
-33.91729
-39.19836
-34.96442
-43.93634
-41.27767
-46.71928
-42.19912
-42.41963
-38.09008
-32.28400
-34.91540
-35.26022
-38.41048
-44.07170
-39.85011
-37.30136
-34.39054
-42.74765
-45.20879
-43.52072
-42.29740
-37.90509
-33.21581
-41.78935
-35.31160
-42.42353
-35.28535
-40.84365
-30.13190
-31.18794
-27.75034
-30.68243
-29.54718
-33.72695
-30.77768
-31.39533
-36.03688
-38.77570
-31.47785
-28.25297
-29.54813
-25.84550
-28.17868
-16.16959
-11.07800
-17.95957
-25.17429
-22.44925
-23.46982
-26.34447
-26.16791
-27.48546
-26.26092
-32.24349
-29.36861
-20.93670
-33.95198
-31.51298
-27.97727
-24.35360
-25.57510
-35.81508
-35.31647
-33.68286
-38.91244
-33.87968
-28.69926
-21.25191
-23.00662
-20.16391
-18.98146
-21.44384
-18.71656
-29.60416
-34.04558
-22.83530
-17.12955
-28.45313
-24.71352
-21.02275
-26.25454
-23.77107
-24.40198
-20.62372
-20.71675
-27.11224
-12.64467
-18.47334
-21.50193
-18.03623
-20.03919
-13.81251
-14.97923
-17.50647
-18.28456
-18.87769
-20.46863
-25.78837
-27.85113
-24.28233
-28.26255
-31.66462
-37.22758
-39.71397
-53.67668
-50.92813
-40.70945
-45.32749
-42.88935
-39.87795
-36.16320
-31.75654
-31.82316
-30.37558
-33.68575
-30.85340
-24.51369
-23.56750
-26.88904
-28.10306
-29.63137
-32.52720
-40.13204
-43.42244
-45.52964
-42.93180
-37.50642
-33.00058
-37.68405
-40.92045
-32.67523
-32.64525
-34.73200
-27.35341
-33.76384
-37.24685
-44.58738
-49.18053
-47.74622
-45.76562
-53.16343
-49.27526
-43.81941
-36.40899
-33.98887
-34.98986
-31.54733
-34.53096
-37.68677
-35.07694
-35.23285
-31.72271
-30.39363
-35.25547
-42.87956
-40.53370
-40.14544
-47.88188
-46.56304
-40.34627
-37.47536
-40.09422
-41.19449
-42.95833
-46.51096
-43.33794
-48.50763
-47.99137
-42.83332
-37.38974
-41.89302
-45.57538
-43.65713
-39.35038
-41.36854
-37.42155
-39.27600
-34.75981
-37.49096
-49.05434
-56.49806
-52.15535
-53.77014
-57.91605
-59.80715
-52.87161
-50.76255
-49.37949
-40.14297
-42.15965
-42.18542
-34.52231
-43.30832
-45.44182
-40.76908
-40.61248
-35.50092
-42.80896
-41.09294
-41.31529
-42.77713
-43.15324
-35.98969
-34.41407
-37.92376
-34.53271
-29.68312
-30.76856
-29.99726
-25.12397
-30.04432
-25.53270
-31.12591
-29.15406
-24.99519
-26.18623
-27.57294
-28.93166
-20.60909
-18.11905
-14.76408
-19.03968
-14.65515
-21.67368
-27.20545
-26.63565
-20.43006
-22.65546
-21.58281
-28.32888
-23.25011
-22.61411
-25.97312
-23.98181
-27.68265
-24.07901
-21.87438
-24.81256
-25.70246
-18.89203
-18.10475
-19.30882
-21.61959
-16.03325
-13.58606
-14.45718
-10.04419
-11.95093
-14.36185
-13.16889
-12.07368
-14.97597
-11.71443
-8.92994
-14.53247
-13.46578
-12.96205
-14.34993
-14.33229
-16.01895
-22.07463
-20.52955
-20.41550
-16.62194
-12.04657
-17.63265
-16.37454
-7.46045
-9.51326
-16.54480
-15.71844
-13.75253
-18.25885
-19.90061
-14.86272
-12.87012
-11.74713
-11.58559
-16.78799
-10.70790
-8.93480
-8.60161
-11.42034
-12.56538
-4.87750
-5.91904
-12.91320
-2.95588
-11.33405
-4.64411
-8.19269
-10.34798
-12.62949
-8.11111
-5.85770
-7.78872
-8.08802
-2.22190
-12.72921
-5.66356
-12.74879
-10.55243
-13.27728
-14.44939
-6.42962
-9.83888
-14.16008
-15.16963
-20.85568
-17.28568
-17.10915
-15.24113
-15.55489
-13.08518
-14.17987
-15.66784
-17.73075
-18.70700
-15.95292
-13.23673
-11.83686
-18.64747
-21.25221
-18.92761
-9.96355
-9.53075
-14.57022
-16.93007
-9.96454
-14.92297
-15.28848
-16.55487
-10.35143
-10.92027
-8.27662
-18.18929
-15.64618
-13.49994
-16.22530
-20.47454
-17.39792
-15.13497
-20.11249
-20.14452
-14.76824
-17.44768
-22.46298
-26.83692
-22.61451
-16.33990
-16.94960
-20.97412
-8.02060
-13.02355
-17.01201
-17.42722
-13.14966
-21.60355
-13.53350
-17.35515
-13.48353
-15.21790
-19.77957
-24.39284
-24.85897
-29.02080
-31.32231
-30.02122
-26.17019
-36.65231
-31.46844
-34.51309
-27.91338
-20.11365
-18.38003
-12.57238
-20.91728
-21.29528
-28.61676
-27.74903
-35.81328
-30.09719
-32.76724
-32.61150
-40.32241
-34.35646
-33.88054
-39.89884
-32.65222
-28.08385
-32.27009
-31.75371
-22.75337
-17.48976
-22.65546
-24.33482
-16.71530
-18.55197
-20.47474
-18.21964
-18.23641
-21.53962
-27.07880
-19.90614
-19.48933
-25.25790
-18.95745
-18.80854
-20.97812
-23.16591
-24.46684
-22.41471
-22.53694
-20.63373
-18.45685
-20.59505
-15.26038
-15.67448
-13.73549
-14.00488
-16.53433
-19.28411
-24.69302
-21.57777
-20.30084
-13.37593
-18.70681
-13.75167
-16.60262
-19.95335
-17.10667
-15.05032
-23.25509
-20.51885
-20.20892
-20.42675
-21.82953
-6.83880
-10.30514
-6.67791
-12.26710
-10.43253
-14.08587
-16.38610
-18.31251
-20.56993
-15.72855
-12.76838
-20.49096
-21.40189
-24.86711
-25.22271
-19.80072
-11.12039
-11.85681
-10.36449
-12.16388
-10.53095
-16.91799
-17.48923
-8.83548
-17.94127
-10.88481
-6.48513
-6.79374
-8.41957
-8.34387
-11.39586
-10.30759
-11.83919
-10.26484
-14.88885
-9.72725
-11.91880
-14.62602
-14.64446
-14.61498
-14.61863
-19.45850
-17.11509
-19.02247
-19.69279
-23.31910
-26.24900
-21.32565
-18.25552
-18.23605
-19.97541
-31.68957
-22.05131
-24.78221
-22.94075
-29.63608
-13.64391
-25.66710
-22.56935
-20.78476
-17.56393
-20.26108
-19.43159
-24.76243
-20.16688
-13.47471
-12.81248
-13.63060
-19.30561
-28.76172
-24.68662
-25.58315
-28.06271
-21.28456
-29.42507
-30.47938
-27.90662
-32.87332
-28.10742
-23.21998
-24.30602
-22.78222
-21.90877
-20.07273
-18.65188
-15.93295
-11.93579
-9.79966
-15.07322
-13.75609
-16.55880
-10.97889
-6.33901
-10.48933
-13.44450
-11.07353
-13.19777
-16.57488
-16.02054
-15.86958
-14.22575
-16.27177
-20.07281
-22.88390
-17.57831
-15.40272
-11.97683
-10.34328
-14.83278
-16.44341
-10.92031
-19.18751
-14.45215
-11.95945
-12.08448
-15.11067
-22.41796
-14.39202
-22.40313
-16.04385
-14.56439
-18.73390
-17.52356
-19.16901
-17.94075
-15.94992
-15.41261
-16.68380
-19.08660
-11.24996
-12.81715
-9.46756
-13.45934
-15.84630
-12.72627
-9.08921
-4.46400
-12.48705
-3.06801
-8.65080
-11.44112
-9.38257
-7.29366
-14.87213
-9.98689
-11.18600
-5.96118
-4.84442
-4.61155
-6.94445
-14.38694
-12.73569
-11.78703
-15.56768
-14.63352
-6.30175
-8.13485
-10.89033
-6.93005
-6.44777
-6.06203
-10.97840
-6.59791
-10.07443
-12.55830
-15.84301
-13.55190
-12.64650
-9.55397
-9.16392
-9.76337
-11.49158
-5.95537
-4.51266
-1.80214
-5.11221
-4.44132
3.67676
-3.32711
-2.79857
-4.51604
-5.40033
2.51583
0.43162
-3.45983
-4.91833
3.86567
1.08549
-1.52811
-5.38689
-2.53154
-0.30069
2.26047
-0.59862
0.98548
0.28189
-6.79587
-4.41317
-9.25103
-8.22045
-10.93633
-9.40947
-15.62796
-15.13815
-11.66832
-13.07264
-12.20146
-13.96710
-5.36516
-9.20548
-8.36331
-8.19390
-8.09220
-2.62500
-8.10481
-10.40002
-9.47986
-17.20693
-15.24307
-18.40980
-12.33262
-17.25708
-11.51771
-15.39190
-17.12641
-5.74047
-8.36857
-14.64896
-11.57818
-12.63878
-10.05478
-12.38142
-6.66544
-12.83374
-21.69283
-24.27763
-22.92061
-23.05468
-20.66190
-10.10089
-8.87052
-16.21631
-14.29274
-13.44071
-14.90844
-7.94605
-8.93944
-9.31042
-9.19110
-10.47486
-12.92263
-14.54175
-15.60135
-14.42154
-13.70999
-7.87049
-4.68366
-8.87647
-6.43427
-5.17888
-5.79908
-9.74084
-9.74268
-16.39503
-14.56544
-21.47877
-20.88968
-14.73574
-17.39659
-20.51640
-15.39784
-14.08141
-19.60510
-17.47949
-28.50122
-27.62153
-20.26977
-23.24525
-27.60655
-28.60730
-31.04033
-24.05854
-26.72311
-23.60783
-20.72453
-20.23701
-12.31314
-21.70859
-26.78378
-26.05938
-24.95421
-15.50381
-12.47590
-14.09089
-17.47269
-20.49904
-23.82813
-23.20038
-25.03445
-20.48275
-21.63521
-18.20392
-17.12137
-17.95952
-13.76704
-18.12048
-21.55977
-19.05583
-21.47879
-13.89260
-17.38575
-18.32829
-17.61417
-14.33005
-20.75157
-20.19330
-24.03513
-20.67986
-18.04074
-19.50226
-21.41038
-18.15728
-20.69765
-24.06131
-16.91469
-19.67108
-22.67782
-19.45428
-22.19655
-22.20579
-22.06174
-20.17705
-22.50546
-19.25903
-18.55503
-20.76334
-23.80217
-19.79923
-17.03045
-14.23685
-18.67543
-21.05111
-18.74719
-20.68645
-19.41707
-15.59367
-15.12707
-15.11200
-17.62843
-12.04846
-20.45340
-20.48009
-24.95494
-23.56600
-16.13170
-14.58314
-14.55389
-15.34543
-19.74650
-20.68487
-13.54314
-13.21734
-7.97687
-9.26375
-15.02660
-14.56821
-16.39527
-10.73573
-10.51051
-5.11867
-7.97997
-8.81565
-4.26299
-6.79049
-1.95605
-3.39073
-7.82263
-6.21649
-10.81461
-15.17872
-11.92561
-8.55918
-7.10051
-2.27975
-4.96491
-2.73660
-2.69657
-2.02597
-10.81238
-19.21190
-19.01552
-15.94695
-13.18906
-10.75661
-16.72188
-23.49487
-13.05928
-7.10348
-6.14002
2.17629
-8.00325
-8.40977
-7.50746
-4.08356
-5.71388
-5.18479
-2.05522
-6.75730
-11.38002
-6.72711
-3.86101
-6.71587
-2.62632
-3.47925
-1.36587
-1.29454
2.78199
-1.04409
-5.84020
-3.20678
-5.63051
-11.95547
-2.30821
-4.93911
-15.43420
-7.11790
-10.09196
-6.44945
-5.50373
-5.16586
-4.15423
-0.96562
-9.14343
-7.72933
-5.36040
-2.63530
-4.94405
-1.13708
-0.72720
-5.79154
-5.22072
-5.05323
-12.11027
-13.78215
-6.42068
-4.00879
-3.45765
-6.92046
-11.04403
-6.57833
-8.56697
-8.60045
-12.00322
-12.98004
-12.55250
-6.32121
-5.50878
-8.99621
-7.51610
-11.25270
-12.23636
-13.48075
-11.21463
-16.06550
-15.01153
-16.96906
-15.58350
-7.83104
-14.30789
-14.16962
-13.09356
-12.10005
-17.59487
-11.77247
-11.00425
-19.07159
-18.92936
-25.78713
-18.99433
-14.82300
-12.26082
-17.65965
-20.79416
-23.33425
-20.06578
-27.38392
-25.23539
-23.95692
-17.43573
-12.12852
-21.75651
-20.11457
-17.08672
-21.15258
-26.34107
-22.53098
-26.12690
-22.96354
-27.95205
-22.36338
-27.62938
-27.02949
-27.97651
-25.81654
-23.37667
-27.45078
-13.66209
-14.54506
-5.71746
-12.44677
-12.66079
-15.34544
-12.08488
-13.79596
-13.48037
-14.91727
-17.42328
-12.28249
-11.29917
-13.41287
-15.38071
-15.66203
-15.31568
-12.85368
-13.78060
-15.94860
-16.06972
-15.05171
-19.39640
-19.76394
-13.33811
-11.68221
-14.11022
-11.86972
-7.24972
-13.53860
-10.62896
-10.29132
-9.20719
-1.80886
-7.81216
-3.85776
-9.71350
-11.71454
-9.20986
-9.69183
-6.20652
-14.66519
-10.09697
-11.84870
-14.34227
-11.72697
-7.55913
-7.16296
-9.04715
-11.42565
-7.64003
-8.48505
-6.14140
-7.93732
-13.09851
-8.55134
-4.81104
-7.39356
-11.00525
-11.68287
-11.77203
-18.37815
-22.30897
-19.76025
-14.24258
-9.27660
-9.40956
-9.18004
-9.31165
-11.70459
-9.39445
-9.53165
-10.77575
-12.33914
-13.70523
-10.86518
-10.42072
-9.89364
-0.88987
-5.14801
-11.19142
-15.01307
-13.73218
-11.04563
-14.07826
-13.26288
-7.11953
-4.61465
-2.34192
2.63081
-1.19776
0.18785
-2.93539
-9.18991
-5.10957
-5.91580
-1.23713
-4.70044
-4.98430
-0.78948
-5.84625
-3.77283
1.28375
3.05433
-4.11847
-1.21253
-4.98250
-6.74516
-7.58186
-2.17781
-7.06622
-5.11263
-8.50493
-6.72802
-9.05952
-4.42183
-11.99665
-7.31233
-8.87940
-13.17124
-11.64876
-10.56888
-10.48602
-10.79387
-13.17421
-12.63691
-12.05645
-13.27122
-13.86637
-7.16378
-14.79870
-11.50637
-16.61304
-18.91322
-11.37737
-14.46163
-5.23661
-11.96903
-15.85347
-10.57557
-14.85196
-19.53299
-20.10764
-16.06376
-18.63965
-19.90581
-12.94551
-14.41869
-12.81183
-19.22250
-16.15590
-19.41169
-17.82301
-8.67861
-13.02086
-13.18063
-18.76113
-11.27113
-14.01387
-13.53203
-13.34494
-13.30382
-12.67905
-3.47882
-9.86383
-11.70335
-13.54433
-7.64594
-4.10039
-10.82548
-8.42992
-9.45870
-3.63602
-4.91048
-6.18083
3.58179
-6.70540
-5.81370
-1.25732
-4.44397
-3.02064
-6.03689
-4.54520
-9.24710
0.97474
-0.13752
-1.45040
0.27874
-4.14487
-3.70655
-4.33864
-4.38157
-8.14027
-9.48486
-5.45049
-6.81465
-8.87295
-4.25795
-10.23290
-6.16230
-6.98762
-8.09171
-8.98258
-12.24536
-7.93529
-12.73238
-4.55232
-10.57636
-5.53407
-4.29695
-2.30414
-2.41265
-0.58479
-4.56145
-5.91521
-8.21586
-6.30680
-10.59757
-6.90816
-7.00190
-4.02892
-4.62783
-10.76829
-13.57351
-14.33216
-7.99923
0.39412
-9.91802
-10.86516
-7.50268
-0.98887
-1.30196
-6.93160
-15.50520
-14.19168
-9.33833
-12.47021
-10.51554
-8.09191
-8.48749
-5.75516
-6.78185
-3.90147
-7.88336
-5.94325
-5.77109
-3.81496
-2.98213
-6.21856
-9.05061
-8.24361
-10.60511
-6.99689
-14.08063
-16.55685
-12.30297
-12.13732
-6.48641
-8.16839
-17.96571
-20.56046
-17.56845
-12.30079
-15.49290
-12.05717
-18.96669
-19.31846
-16.56838
-11.79610
-15.31963
-15.36350
-20.06549
-9.87403
-12.45845
-14.28850
-6.30445
-12.98627
-16.66503
-16.25200
-16.41348
-23.02623
-24.09223
-20.86198
-20.23770
-20.63198
-27.00139
-29.66756
-21.57770
-21.56995
-24.62633
-26.15115
-27.16684
-26.39381
-26.08840
-32.75489
-31.39904
-36.62768
-36.72605
-24.25096
-22.09542
-23.49641
-21.68902
-24.15839
-30.81008
-33.66916
-28.10362
-28.12989
-30.30490
-20.88688
-24.60586
-24.67845
-24.68955
-24.95825
-28.00004
-22.51364
-25.29117
-22.00668
-14.15993
-14.45351
-16.07366
-17.57649
-17.61251
-21.38754
-18.53914
-14.58288
-12.31375
-11.25387
-11.23320
-10.11729
-11.68115
-13.08500
-17.06958
-11.47894
-15.39657
-16.10765
-10.65738
-15.78476
-12.01289
-6.82475
-13.26221
-10.69801
-13.94988
-10.05903
-10.36401
-6.32474
-11.81607
-13.80674
-15.21022
-10.29893
-8.23823
-12.17384
-12.08305
-17.55820
-16.57854
-15.87152
-10.80318
-14.55715
-13.17885
-14.21478
-16.49878
-12.94536
-16.94729
-11.55980
-12.42178
-15.05944
-14.97854
-10.52167
-18.62715
-14.63629
-15.78139
-17.70960
-13.76151
-8.37312
-11.14541
-11.46759
-18.02198
-13.93163
-10.86991
-7.65516
-11.95603
-7.59672
-9.70550
-8.09326
-6.33455
-0.45849
-11.28080
-12.67326
-7.75425
-4.33954
-6.39390
-5.33233
-7.66001
-7.84280
-6.26760
-9.60317
-5.98998
-6.94196
-4.53621
-3.92088
-5.77783
-9.90909
-5.80539
-2.41157
-3.06100
-8.64895
-8.15639
-4.12141
-1.64661
-5.59900
-4.33994
0.22451
-2.17499
-6.53069
-6.61328
-9.34585
-3.65760
-2.35009
-3.44594
0.93752
-2.70003
-1.38249
-5.79792
-5.34867
-6.01711
-6.21436
-4.43715
-8.07637
-9.20824
-6.39920
-2.49631
-11.34248
-10.02743
0.46867
-0.75169
-5.02509
-4.73306
-8.14232
-7.47435
-10.55202
-19.72011
-11.21455
-12.08553
-9.73168
-17.30399
-12.14094
-12.51074
-9.54714
-9.33164
-8.44584
-8.29344
-9.66351
-5.13467
-10.67116
-10.80809
-9.09172
-11.81633
-12.35900
-9.49776
-14.08602
-12.03095
-9.33551
-9.18122
-11.17219
-16.00771
-11.73451
-15.89914
-19.29007
-16.62277
-8.17000
-8.03182
-13.82344
-18.98652
-15.88623
-14.74182
-11.31272
-10.21498
-19.13841
-15.91734
-12.10809
-12.12937
-13.93204
-8.00765
-14.04424
-9.00707
-13.13288
-9.60140
-10.58522
-7.57609
-9.56068
-14.62508
-13.58280
-11.70090
-15.03891
-10.20324
-2.38330
-0.68649
-4.39401
-10.15049
-11.19248
-12.46171
-7.18108
-12.98089
-9.35139
-7.50270
-10.91868
-4.86295
-5.99325
-4.44308
-6.76008
-5.77581
-9.56241
-14.95789
-12.13587
-5.31265
-4.84002
-5.26361
-2.45787
-3.84623
-12.33646
-9.44484
-11.29928
-10.53314
-8.20706
-9.35205
-14.60524
-8.39203
-5.00124
-7.83878
-10.24299
-5.48410
-11.14911
-4.27631
-2.83761
-5.50647
-4.48063
-6.50634
-10.82956
-9.05426
-11.12270
-10.13882
-9.77089
-9.61766
-10.52640
-8.65713
-0.86278
-2.26200
-1.87090
-7.05139
-12.72194
-12.46553
-4.36122
-2.46130
-2.76898
-7.39734
-5.53619
-5.90541
-7.93396
-4.46023
-10.02721
-15.78774
-11.61644
-14.05879
-25.60669
-20.97158
-16.61462
-22.38420
-29.52490
-23.36204
-19.60662
-12.31873
-14.19107
-16.83183
-15.60984
-20.53857
-17.73259
-12.31213
-13.96002
-20.69734
-18.53610
-20.18589
-16.02906
-22.48871
-20.35071
-22.44952
-28.29785
-30.99441
-25.81553
-32.47846
-31.80607
-40.55032
-39.25140
-38.63542
-42.51176
-38.61942
-26.90303
-31.38260
-25.17522
-21.10734
-22.86858
-26.75948
-33.93617
-29.67755
-30.67518
-30.76492
-22.33983
-30.58978
-34.30815
-34.33033
-27.30292
-23.22061
-25.88201
-19.47942
-20.67231
-20.89309
-32.95339
-31.20269
-30.28816
-36.21054
-28.05343
-35.11769
-38.14532
-31.34871
-38.03136
-32.65748
-30.17683
-39.82478
-39.06897
-40.53584
-43.38722
-33.52096
-34.08724
-34.80630
-37.50454
-35.63763
-39.74898
-42.00636
-41.03856
-42.94509
-38.45625
-39.93986
-44.50059
-40.87895
-37.19007
-32.01137
-37.11228
-35.89936
-28.96486
-29.66375
-31.91240
-37.00667
-33.40419
-34.38405
-31.56069
-33.49587
-32.99510
-26.48000
-25.68831
-36.05461
-31.86347
-27.35116
-32.31893
-30.55719
-27.39171
-28.06237
-25.45865
-25.37508
-22.37225
-26.65380
-32.84042
-31.84206
-27.31635
-28.07722
-24.91895
-24.05499
-20.35327
-13.65288
-22.22435
-17.97455
-24.02188
-23.40907
-29.23836
-23.02904
-20.88479
-28.99470
-22.73443
-16.99292
-24.59789
-22.81232
-28.11066
-35.63171
-34.94107
-27.16476
-24.95650
-25.65658
-35.54717
-35.30661
-34.17844
-30.88416
-24.17748
-29.79644
-24.93949
-24.65410
-30.42919
-35.52204
-34.16371
-29.89200
-28.22101
-31.59078
-28.91417
-31.31284
-29.50616
-29.21795
-23.69987
-21.30703
-21.83995
-19.32410
-22.31074
-23.10059
-20.39624
-21.05455
-22.78954
-21.96512
-20.82653
-30.17495
-25.84697
-13.79898
-16.84538
-19.88596
-15.14033
-17.30687
-10.56790
-15.73592
-13.11936
-23.12911
-17.51876
-15.28046
-17.64884
-16.67819
-17.23648
-24.01528
-15.42647
-16.41276
-18.20964
-16.72002
-17.29065
-16.88245
-20.12621
-23.67564
-22.06034
-24.02229
-21.33460
-22.13958
-25.73781
-21.78155
-22.71763
-15.22039
-27.49878
-27.01666
-17.60870
-21.91856
-25.36638
-28.51520
-35.80867
-30.98859
-30.89034
-32.12644
-27.60872
-25.35699
-29.46214
-28.92481
-25.62192
-24.51274
-32.80539
-29.88915
-27.94412
-31.25898
-28.57172
-17.56052
-18.60593
-17.13099
-16.28818
-15.19446
-21.37739
-14.41895
-13.34148
-20.42615
-24.49189
-18.92289
-9.19283
-5.62470
-8.50539
-15.26169
-22.10504
-16.85417
-17.17969
-21.24320
-21.35461
-23.85378
-28.60720
-29.21863
-33.03760
-35.99905
-31.83421
-28.14291
-22.80067
-23.49749
-20.68568
-16.39744
-22.71236
-26.01958
-22.00781
-25.53669
-27.69126
-26.45733
-25.99197
-23.91568
-23.08487
-24.34760
-26.70434
-20.05180
-27.73147
-30.82808
-28.59054
-22.33761
-20.70616
-20.13630
-23.21811
-23.62984
-24.49713
-27.04298
-24.68241
-21.58682
-18.99868
-16.98006
-18.28055
-26.91225
-26.34574
-19.60432
-22.00435
-14.94667
-23.11136
-17.53973
-20.65041
-24.16225
-33.84772
-32.94415
-34.56032
-28.11513
-26.49787
-28.92403
-33.08419
-31.98362
-33.36385
-35.06609
-33.59154
-39.83261
-35.51142
-36.39984
-28.37050
-34.97727
-30.27163
-27.51902
-27.30252
-30.95508
-32.51337
-35.03745
-39.74264
-41.22635
-37.63681
-34.87644
-36.38420
-45.60609
-47.82483
-42.93285
-49.97740
-47.70662
-43.29774
-51.61961
-52.73954
-48.73816
-46.32100
-48.61383
-40.35531
-41.89825
-51.79175
-50.74245
-48.40660
-45.26969
-47.84178
-42.33479
-47.21070
-35.84312
-40.17890
-43.58905
-46.19116
-38.67283
-44.05487
-54.29740
-45.19899
-47.88662
-37.69091
-39.61185
-36.15743
-34.35823
-33.80069
-35.72706
-39.47141
-39.68754
-39.25093
-46.65576
-48.84392
-42.49075
-42.25083
-48.92727
-45.00527
-50.83396
-52.30561
-55.70632
-54.07658
-54.09179
-47.69623
-45.79506
-39.87003
-42.03029
-45.55102
-45.96650
-45.30230
-46.78016
-51.80819
-52.51059
-51.57795
-49.09434
-54.22090
-52.21575
-48.87099
-54.12583
-55.39009
-55.67937
-52.75846
-52.73087
-46.45173
-42.97945
-44.60718
-45.93028
-48.63328
-48.90975
-49.45312
-46.66744
-50.31371
-50.43070
-44.38891
-41.43684
-39.66823
-39.63032
-37.74917
-42.99295
-44.73209
-45.39838
-46.11958
-50.15712
-48.35966
-42.08319
-45.36781
-49.61294
-34.89784
-38.05192
-28.87900
-41.00994
-39.52385
-34.31825
-32.12740
-28.22802
-33.63865
-38.43829
-29.76270
-26.19608
-32.37755
-33.90900
-35.55762
-33.93371
-33.66730
-33.20226
-36.60244
-32.50905
-31.20946
-28.50263
-37.61899
-39.58132
-38.87619
-36.03115
-33.46968
-40.76972
-40.02926
-46.72358
-47.05509
-45.06316
-44.29263
-37.30726
-31.12975
-37.18799
-38.77070
-43.23371
-36.94390
-37.24542
-31.96571
-25.59623
-23.42383
-29.96888
-33.00565
-36.43209
-35.30066
-33.57069
-32.68419
-40.38189
-32.45869
-27.88827
-28.53843
-35.87004
-29.73650
-35.18373
-37.17885
-38.71737
-37.51308
-48.08349
-42.92311
-36.12294
-44.28504
-41.66732
-44.65058
-45.01339
-41.90874
-42.02510
-41.32796
-42.82022
-39.26481
-38.94452
-45.90306
-44.88599
-50.56742
-43.88400
-36.86927
-32.41302
-29.28550
-33.04345
-38.05432
-32.16045
-35.14219
-37.19874
-40.29474
-45.52752
-43.18759
-39.21078
-46.06918
-44.91465
-43.48518
-44.95356
-43.15261
-43.73084
-45.04756
-40.84093
-50.77867
-43.74102
-46.52449
-41.99516
-47.80578
-48.14193
-47.30086
-50.68637
-47.05516
-50.03027
-42.56937
-48.73444
-50.25693
-48.60428
-46.47113
-44.15171
-49.03263
-47.59407
-49.59771
-55.91748
-55.27912
-46.21925
-48.82709
-51.34432
-56.49276
-52.51311
-49.15652
-48.97287
-48.25638
-48.35725
-52.09497
-49.47517
-45.75015
-50.47402
-53.16953
-50.72806
-57.08945
-55.92596
-51.08694
-50.60895
-54.41395
-55.28751
-55.11754
-62.25342
-56.96173
-52.96170
-42.77291
-46.97521
-45.77706
-44.78425
-45.94807
-44.27904
-38.15534
-39.75639
-40.48736
-35.23113
-37.19449
-40.40956
-38.22281
-34.31213
-34.42582
-32.44073
-33.32910
-34.38842
-31.12844
-41.22977
-39.73251
-38.02368
-34.49030
-34.89894
-36.34064
-37.01266
-32.37387
-35.85962
-41.40832
-38.00941
-30.38913
-31.86575
-33.10238
-35.64984
-31.25325
-29.70731
-32.77098
-31.98901
-34.89705
-35.65541
-39.90173
-36.93160
-37.54589
-36.48496
-35.17400
-37.63879
-31.19679
-32.82339
-37.53537
-30.01948
-28.25570
-30.09076
-34.66275
-28.22087
-27.73765
-27.81010
-28.88417
-28.97949
-21.39339
-22.22700
-27.78171
-24.77567
-23.60119
-23.40612
-17.96163
-22.70145
-24.12999
-33.11902
-31.42529
-34.95065
-31.77157
-32.00554
-24.97308
-32.67165
-32.55148
-26.50403
-26.79837
-18.20679
-22.08733
-32.64032
-27.43885
-27.67109
-28.87824
-32.29457
-34.30617
-27.03923
-21.95063
-22.25030
-24.91080
-13.95613
-23.23878
-23.82458
-16.68146
-12.09066
-22.07689
-27.29313
-22.38271
-28.51915
-21.02185
-20.84645
-17.69067
-15.37937
-20.31818
-27.44673
-28.43103
-27.36147
-26.51491
-19.15933
-15.48416
-17.80522
-19.15904
-21.56500
-16.49707
-21.53051
-13.80573
-13.59858
-11.64532
-17.22951
-22.67018
-17.02563
-15.89304
-15.53179
-7.58611
-7.55479
-17.44335
-17.20769
-16.95416
-18.07121
-17.22853
-19.96520
-26.25084
-28.34745
-29.64452
-21.83420
-22.76994
-17.06585
-23.09904
-24.40359
-24.48656
-16.38255
-17.97688
-21.19464
-17.09159
-15.93577
-13.85862
-9.04835
-7.89700
-10.34306
-12.29562
-13.09803
-15.26516
-14.39193
-10.22339
-18.61089
-18.73585
-20.31945
-19.07756
-22.43108
-21.11858
-21.65341
-25.84621
-30.67668
-22.63209
-20.45911
-15.02825
-17.34050
-21.87867
-20.08004
-24.73041
-16.95636
-19.04208
-23.86881
-19.81133
-23.02879
-22.96651
-22.25654
-18.64210
-13.75468
-18.54808
-24.84687
-31.76152
-19.32275
-21.15132
-23.75844
-20.33661
-18.38740
-18.08530
-27.00971
-32.82808
-38.49023
-36.19134
-37.98317
-32.46666
-33.76549
-30.48181
-37.12991
-34.07952
-34.15140
-36.28318
-40.99212
-40.12311
-36.27131
-37.12037
-39.38332
-37.24753
-33.21420
-38.44141
-30.41675
-28.42504
-26.17590
-31.16595
-30.42154
-35.69583
-31.09845
-26.63039
-31.36192
-30.20061
-36.43542
-36.95519
-39.07699
-30.55593
-33.32378
-35.93092
-35.66708
-31.53299
-28.51852
-33.86342
-34.59397
-31.31059
-27.21970
-30.06819
-22.11357
-20.31466
-17.08158
-24.84134
-30.53732
-33.05479
-33.85871
-30.01375
-22.41365
-29.98539
-30.75986
-34.00745
-29.19212
-32.96863
-29.35880
-27.19454
-29.03399
-33.40658
-27.27220
-35.68147
-31.82708
-32.55737
-26.57134
-25.01310
-21.33318
-15.52137
-20.22813
-28.69494
-27.92389
-29.94316
-28.79414
-35.58095
-30.65787
-25.43139
-30.43694
-30.50255
-19.68767
-20.29650
-22.39154
-27.18525
-34.43182
-31.51440
-33.20194
-28.91394
-25.28944
-30.28818
-27.44793
-33.68432
-36.38301
-33.79170
-39.32744
-27.92925
-23.86335
-27.69791
-32.17632
-26.55858
-26.47531
-25.30661
-29.36224
-20.62931
-20.31432
-25.09215
-26.86381
-30.82261
-25.13252
-33.24340
-33.28966
-32.02135