-66.87244
-74.26999
-74.45480
-65.03744
-68.31912
-70.55021
-68.40294
-75.53158
-70.85880
-70.24230
-64.69184
-70.01660
-66.23980
-65.32537
-66.26810
-73.30974
-76.04017
-74.29224
-73.17061
-71.95950
-77.85173
-80.25157
-70.97848
-81.99689
-76.61872
-76.15559
-65.85456
-72.61040
-75.96757
-63.11657
-56.00019
-50.17987
-62.86446
-71.98759
-70.50074
-70.19348
-80.00023
-71.45582
-71.78958
-72.85616
-76.86235
-79.99833
-78.81235
-73.33683
-66.83948
-57.95204
-66.33543
-69.13782
-71.18242
-69.10796
-64.56841
-73.19988
-79.55460
-76.64904
-76.73116
-70.39912
-69.84513
-69.51335
-74.20399
-77.18068
-72.20743
-67.27246
-74.22874
-70.73013
-72.98992
-77.79395
-83.86343
-82.46321
-79.01125
-75.02411
-74.73128
-65.70725
-69.68904
-77.25293
-71.30559
-75.75503
-73.88776
-73.03220
-72.42945
-74.22844
-88.66732
-95.64621
-87.53811
-84.99989
-88.70330
-83.64045
-78.63166
-87.12391
-87.77452
-91.09709
-88.00022
-92.67377
-96.11553
-94.08073
-91.62997
-88.61226
-87.19185
-94.41230
-93.04169
-93.68549
-98.12166
-100.27908
-96.06067
-95.83082
-96.23622
-94.99502
-88.04675
-95.64482
-99.47883
-95.77934
-94.49516
-92.36262
-99.87187
-99.98455
-98.18586
-102.02698
-90.73915
-92.15410
-99.52973
-89.68915
-97.04640
-104.83990
-99.74128
-100.06052
-97.50051
-100.92423
-93.27235
-93.55776
-97.92915
-87.22625
-86.66195
-91.84072
-94.45490
-91.06634
-89.92329
-86.31224
-86.88547
-90.09749
-90.67418
-89.95469
-87.15935
-89.96076
-87.54580
-88.98620
-92.70140
-90.63759
-87.50209
-88.08977
-94.08623
-89.78868
-83.32545
-85.68341
-85.22218
-95.00814
-91.88785
-79.57273
-73.26140
-74.30366
-78.22921
-77.94769
-89.68686
-80.33975
-78.87700
-79.19532
-76.77838
-80.69768
-80.75674
-84.74392
-88.72261
-87.14184
-86.67655
-92.43235
-94.33658
-83.60258
-85.26662
-81.42247
-86.57160
-89.92241
-83.40113
-81.74175
-84.90152
-94.52999
-94.52470
-92.57822
-85.43651
-85.38699
-90.25891
-87.66555
-84.22996
-91.78733
-84.41826
-84.97145
-85.93990
-91.38754
-84.35241
-79.52251
-79.68552
-86.15590
-79.71437
-80.41459
-84.15880
-84.53434
-87.49274
-82.66671
-77.26885
-81.01501
-83.13284
-81.40136
-80.02441
-81.94024
-86.35109
-80.96214
-74.73204
-75.64461
-75.86144
-77.10085
-78.27147
-74.26698
-74.25412
-81.96139
-82.04269
-82.27182
-88.41094
-85.55590
-82.91668
-79.78998
-84.55138
-87.80528
-91.33508
-88.20042
-83.71977
-90.88197
-85.43198
-85.28920
-82.93537
-86.55000
-84.69354
-89.58908
-82.87096
-83.09192
-75.18582
-80.38973
-80.98772
-87.42645
-82.91174
-76.93024
-83.24748
-86.95326
-81.01629
-77.94284
-75.45003
-75.36248
-76.13854
-76.22492
-72.51367
-70.98945
-73.48163
-78.88099
-78.00377
-79.48173
-77.76017
-80.99266
-73.50958
-71.52027
-81.43998
-82.38733
-84.71534
-85.20674
-84.47113
-76.88085
-77.45727
-76.96219
-74.96834
-81.16707
-79.58043
-72.00841
-78.59498
-82.08901
-79.37252
-83.57207
-80.02196
-79.76975
-83.87208
-82.03462
-80.83121
-81.02829
-82.19197
-74.92171
-83.19102
-83.93060
-90.08837
-91.33563
-97.31348
-84.60714
-79.96203
-85.95678
-92.53108
-83.11576
-84.87039
-89.32652
-83.70344
-79.05088
-88.25179
-80.94927
-75.56742
-70.31850
-75.41438
-74.44081
-80.54924
-87.94206
-83.18954
-82.35116
-81.46462
-80.06677
-86.36553
-85.90739
-82.35072
-86.96402
-90.13192
-79.37045
-78.77775
-72.52857
-75.70478
-66.73461
-65.87963
-65.19181
-67.59802
-64.78112
-63.39871
-64.50990
-67.36841
-61.03434
-58.76855
-59.81730
-61.06304
-58.03009
-54.35176
-60.88923
-65.91382
-69.07436
-69.26236
-67.80693
-56.81050
-59.91882
-59.09129
-64.06243
-60.63404
-69.39132
-73.97936
-69.60678
-72.54022
-71.73620
-73.89457
-74.63366
-76.58000
-71.48740
-74.10963
-74.42373
-71.32621
-76.83162
-72.67747
-74.63911
-76.41082
-82.80641
-80.11086
-76.46341
-75.34854
-75.95580
-73.26824
-77.22837
-79.37110
-81.89400
-74.97933
-83.43634
-81.72417
-84.72997
-88.54203
-87.31323
-79.74213
-77.97453
-80.69974
-83.79163
-78.75257
-74.42364
-77.95414
-74.16036
-79.74545
-83.50927
-82.33788
-83.98413
-86.09372
-84.21314
-83.73222
-91.07383
-83.20320
-87.33729
-93.03526
-89.74833
-85.46000
-84.02905
-81.78419
-87.14107
-86.76148
-86.69662
-90.97145
-86.88594
-79.48631
-90.41095
-85.79505
-86.53451
-81.00611
-85.15846
-92.71176
-94.48207
-86.70749
-91.13365
-84.34592
-92.41599
-96.52613
-94.63936
-88.42854
-90.94217
-82.69242
-79.27277
-85.68817
-86.38477
-89.79441
-93.55403
-87.12463
-77.00948
-74.96227
-80.25875
-76.30658
-80.01565
-83.12909
-76.09150
-80.59696
-84.91057
-90.18694
-83.73713
-86.88960
-92.24802
-85.89378
-83.57052
-90.43281
-89.17832
-91.62273
-94.90566
-87.58290
-82.21000
-90.79618
-92.06474
-87.42969
-79.80815
-87.50776
-86.99448
-84.55615
-87.06546
-87.23688
-80.05484
-80.62824
-81.10201
-78.77101
-80.54210
-84.46161
-81.49376
-88.80629
-85.26213
-82.58785
-83.51393
-81.48352
-83.83437
-82.89197
-81.18368
-81.91342
-82.74300
-81.01094
-77.85386
-82.34683
-82.14983
-79.51894
-82.02808
-73.88804
-77.79547
-77.97305
-83.06049
-82.38382
-80.23665
-83.65278
-87.31722
-85.31422
-84.85434
-84.80085
-87.96193
-86.87289
-85.45120
-91.61861
-88.20729
-81.06050
-84.24861
-92.18927
-89.06442
-88.26860
-92.80957
-91.13566
-89.12523
-87.60089
-91.38645
-92.46566
-91.59044
-91.19735
-94.66668
-89.75609
-86.31881
-83.84841
-92.11146
-85.93860
-89.19587
-92.22751
-85.16509
-83.10280
-84.61136
-87.45210
-89.27487
-91.00541
-90.87776
-93.16843
-95.14657
-93.16476
-90.12682
-90.34061
-85.21665
-83.70801
-82.80178
-82.40321
-85.54955
-85.36995
-81.65996
-89.70295
-87.41804
-80.94737
-80.15906
-84.73413
-87.75372
-85.95894
-84.72327
-83.29767
-85.13039
-86.32512
-83.52970
-85.05980
-87.24000
-87.06698
-82.87631
-74.69654
-84.06582
-79.20374
-77.68708
-73.12664
-71.67709
-80.04217
-78.64343
-80.17718
-85.42310
-82.22079
-86.60170
-88.26246
-83.12715
-81.52749
-80.61369
-88.00634
-91.82051
-86.28094
-82.72612
-81.34208
-88.25669
-80.75825
-82.11787
-77.17228
-80.26369
-86.19268
-81.48776
-77.02467
-78.78012
-78.97511
-77.24411
-72.70852
-72.71036
-76.28134
-74.53511
-70.90321
-78.12205
-77.91953
-76.49968
-85.84714
-79.04025
-76.72783
-67.69845
-66.68629
-84.93643
-88.59818
-92.08465
-83.56793
-87.17604
-93.21726
-91.15905
-87.43235
-80.97203
-80.59227
-88.12968
-96.44020
-96.91720
-83.72566
-93.65519
-93.42750
-92.34754
-100.10829
-98.66410
-88.08894
-88.69711
-91.83043
-83.11019
-83.07377
-82.41609
-82.42961
-86.50787
-82.08294
-72.28817
-69.52107
-70.21452
-79.87508
-78.57759
-71.90529
-70.75112
-71.82962
-75.71065
-70.68693
-70.80256
-73.49854
-80.26054
-75.87630
-81.97355
-81.91477
-82.12134
-76.59759
-74.96864
-75.65252
-70.73432
-73.35082
-75.10099
-77.87222
-78.27286
-83.07369
-81.55819
-75.03646
-68.88642
-76.79651
-87.51105
-75.82153
-74.82522
-85.78164
-83.35636
-83.96264
-82.67401
-80.68540
-89.61747
-90.29685
-95.25611
-90.06280
-83.29196
-85.16260
-83.99882
-83.67875
-82.74764
-82.28625
-82.70756
-81.85613
-77.83299
-77.31130
-78.58091
-75.73109
-87.96524
-83.13076
-85.83898
-86.24006
-91.34219
-90.03846
-89.94470
-84.56736
-90.32392
-86.80938
-85.06687
-85.76386
-86.43054
-87.00029
-83.70978
-82.91041
-78.60190
-79.21967
-79.17086
-73.63094
-74.52008
-82.55207
-75.65285
-75.34257
-75.64818
-75.22120
-74.76473
-75.58680
-74.35155
-81.19218
-77.67489
-75.76636
-78.61345
-79.22633
-76.39645
-78.42390
-77.56796
-80.60145
-80.93190
-80.92272
-82.83863
-84.83613
-78.75186
-76.20450
-71.69361
-79.06449
-74.97615
-82.91523
-81.39488
-83.36630
-76.58293
-71.97781
-68.46767
-74.95129
-76.88052
-74.20572
-81.62002
-81.87693
-75.78901
-82.74599
-81.29940
-81.65412
-76.30854
-78.41530
-78.76568
-82.59606
-68.83342
-68.54446
-77.89723
-74.65650
-74.85858
-79.70766
-74.32595
-70.20224
-74.42228
-73.71540
-65.68901
-71.94019
-71.91566
-69.12292
-67.20584
-66.19574
-58.86849
-64.95538
-77.40557
-73.62635
-64.37741
-65.96218
-70.88367
-75.31371
-74.07759
-61.10985
-65.72351
-71.48273
-68.10616
-70.35487
-71.60180
-67.85978
-69.48543
-71.80018
-66.92028
-76.54596
-78.26976
-73.50708
-78.63289
-73.22006
-75.73074
-74.30378
-74.11950
-74.14296
-68.48159
-76.69130
-80.87377
-81.09383
-81.22370
-80.77839
-84.84756
-87.23536
-87.42384
-88.75763
-96.90356
-93.80592
-91.17421
-82.17201
-87.45088
-91.70317
-82.91461
-85.35731
-87.97899
-90.97687
-83.95390
-74.21436
-75.98155
-79.66119
-76.46432
-77.20439
-83.04559
-75.39034
-79.07924
-76.40211
-80.96466
-77.26524
-77.12097
-80.81647
-86.23407
-87.83217
-89.60403
-86.24407
-85.29464
-88.53207
-84.16862
-88.59199
-84.42543
-79.47979
-82.12104
-84.50618
-88.57582
-90.81092
-82.18763
-81.19066
-77.54335
-74.83986
-68.72666
-78.40335
-86.05615
-86.37285
-78.22760
-80.42560
-76.42772
-79.79089
-77.01954
-78.44424
-83.17298
-80.15994
-78.51418
-78.84540
-73.65876
-77.93456
-76.30282
-83.63405
-74.51031
-78.79575
-77.85328
-75.16989
-68.17264
-72.30221
-74.47209
-71.82257
-76.01399
-80.74107
-85.79689
-85.96308
-87.34910
-97.58052
-94.61407
-89.39406
-85.92762
-84.48888
-91.24810
-92.97556
-85.75771
-87.70515
-80.93158
-87.90184
-94.21415
-84.59014
-82.72246
-84.75146
-80.83540
-80.73439
-89.30234
-94.76086
-94.76853
-87.55286
-88.87375
-88.89076
-88.01657
-85.07537
-89.01567
-86.16777
-88.11752
-84.68007
-85.30097
-80.46713
-82.70422
-82.07445
-80.11021
-84.79638
-85.71430
-83.85937
-84.58439
-87.10815
-87.92995
-92.13256
-98.66957
-90.69006
-90.29707
-94.01876
-88.95067
-86.18101
-84.41610
-81.95886
-82.69969
-84.70751
-76.85059
-78.95673
-74.76581
-76.15577
-77.04868
-79.23760
-79.80420
-74.00636
-71.98326
-66.52497
-66.22725
-74.98060
-76.73434
-71.99137
-79.49940
-76.45948
-70.90964
-72.84981
-73.27093
-74.07339
-72.50523
-75.34285
-75.78983
-73.55794
-73.23167
-74.57324
-75.27510
-79.00495
-72.28148
-74.36020
-71.56423
-77.44356
-82.05063
-70.35541
-69.33090
-75.85466
-76.70511
-76.06770
-74.52754
-69.14379
-71.69028
-69.15415
-67.45398
-53.13401
-62.45671
-71.35455
-73.37583
-75.26854
-71.37546
-82.78211
-78.81006
-76.43613
-83.66088
-85.05477
-76.92131
-72.86644
-71.70645
-74.85860
-76.86632
-71.74555
-76.02619
-78.64628
-77.24193
-87.90419
-84.91429
-82.85503
-81.95325
-73.68933
-75.46966
-75.53702
-65.86978
-68.10370
-70.56268
-71.60365
-75.08215
-70.37171
-66.72948
-63.82665
-61.04358
-72.47356
-77.76480
-77.51591
-80.03511
-77.03326
-76.35850
-78.21580
-75.52778
-83.47635
-85.23827
-72.66742
-78.05506
-87.60610
-79.89851
-85.36712
-79.98427
-69.98035
-71.24770
-74.94361
-74.93183
-76.65847
-75.15250
-83.71958
-78.23749
-81.20173
-80.22345
-86.93562
-81.40886
-89.66024
-86.22995
-91.60664
-89.13335
-86.12845
-83.35450
-80.16716
-83.75317
-75.95626
-79.05426
-91.07736
-92.14783
-93.68651
-89.86801
-85.81586
-84.41725
-85.32549
-80.63904
-87.21309
-87.31109
-86.19107
-80.64991
-82.64152
-82.13188
-85.01408
-91.03977
-85.63180
-85.18928
-86.15425
-76.13622
-85.21626
-77.89444
-79.36341
-78.46674
-78.27545
-77.44898
-76.81776
-76.57896
-78.32468
-76.46645
-73.99708
-72.53560
-75.09543
-76.48454
-81.82683
-85.64150
-89.61794
-98.56097
-96.74095
-92.61078
-95.71598
-92.74383
-93.64490
-89.26214
-94.02270
-95.82884
-95.87082
-100.45849
-98.31729
-91.38869
-88.47355
-92.88419
-94.14980
-91.21709
-95.98870
-94.52812
-93.25257
-91.42902
-92.59772
-86.76584
-81.78347
-85.29122
-89.81540
-94.47748
-88.73974
-89.56755
-92.51579
-96.32778
-91.78001
-95.53812
-98.62402
-99.21222
-93.71336
-97.49583
-94.06152
-94.79766
-98.23865
-92.90198
-89.04579
-89.95656
-81.83851
-87.26756
-93.88279
-96.76232
-98.11414
-91.81496
-92.62997
-87.37762
-82.37109
-89.06261
-93.00200
-81.22052
-78.98856
-76.29008
-80.92917
-83.76969
-86.86024
-82.29183
-78.26305
-88.22873
-82.87910
-84.73180
-92.08606
-95.32428
-91.88933
-91.58006
-88.20087
-80.57364
-80.24055
-82.94214
-70.86980
-72.31508
-70.10261
-67.76292
-62.02655
-66.88410
-69.65942
-66.93564
-59.90472
-70.61622
-68.64386
-70.17538
-71.46149
-72.84270
-71.68277
-66.04588
-55.09361
-58.66976
-46.94172
-51.18743
-54.70260
-55.92063
-52.48799
-46.13610
-51.15085
-44.29271
-42.99274
-38.01568
-48.18914
-41.41856
-39.54375
-34.23244
-28.21323
-32.50696
-35.98791
-35.68884
-32.20287
-35.33593
-40.36461
-31.95556
-36.80208
-38.94378
-36.41203
-31.99459
-30.97189
-30.64106
-37.77219
-38.20060
-28.09907
-32.04146
-30.20604
-28.43806
-28.68539
-32.40101
-30.41828
-32.95263
-29.27930
-31.89492
-33.31842
-34.06916
-30.61864
-27.47089
-26.68704
-31.38791
-26.12149
-25.70254
-19.61681
-27.35740
-30.74087
-35.59065
-36.30659
-26.02429
-25.86320
-25.58232
-23.07795
-22.72293
-17.74710
-19.38653
-20.76464
-10.66106
-8.60086
-13.73860
-13.36738
-13.47590
-15.94452
-12.29176
-12.82930
-15.83451
-10.62445
-14.73618
-22.33387
-13.19602
-4.40343
-14.53540
-15.82228
-13.20241
-15.60917
-17.40309
-20.68261
-15.50781
-16.42634
-18.22569
-20.65775
-20.68414
-15.34308
-18.49968
-20.51096
-20.10513
-18.56962
-13.61231
-14.91565
-16.76856
-16.74590
-11.51682
-21.50109
-20.39255
-18.65213
-14.86517
-20.95777
-16.99229
-13.22116
-19.39381
-3.59316
-17.93475
-17.46118
-26.11171
-20.94563
-10.66321
-9.44475
-10.30484
-17.91358
-20.00313
-17.90831
-7.29407
-14.12737
-15.51288
-13.71072
-11.69790
-7.35472
-8.27005
-4.62648
-7.39183
-10.00785
-8.71739
-14.33390
-8.72225
-9.30793
-11.98422
-9.61266
1.12246
-4.84998
-12.96993
-14.00897
-5.37470
-6.94178
-12.89709
-9.28922
-9.95551
-9.79076
-12.96591
-13.49485
-16.74046
-10.96657
-11.79821
-8.30086
-18.87883
-20.12612
-11.54783
-15.98379
-16.86073
-11.94018
-15.67438
-18.33874
-11.35769
-17.33648
-18.42344
-10.25998
-20.36213
-19.94619
-17.70861
-18.64340
-17.76430
-22.08355
-13.34444
-12.83494
-13.46001
-10.00751
-4.58968
-1.86528
-4.12221
-10.57039
-10.36722
-6.99170
-8.71892
-8.68695
-1.37875
-5.77694
-9.53401
-13.58799
-15.13420
-15.29090
-7.95234
-8.97802
-9.97734
-12.65375
-7.95246
-5.28081
-14.26806
-12.12014
-13.46354
-15.59801
-15.28418
-13.77349
-15.68150
-15.88899
-15.07098
-12.42145
-14.00758
-13.92740
-11.50799
-7.89203
-6.65449
-11.79885
-7.10319
-10.62619
-15.91418
-7.36521
-10.69071
-10.29141
-8.41657
-12.77227
-12.10935
-11.98174
-16.09604
-17.20862
-17.34660
-15.21189
-9.94750
-13.51245
-15.25438
-11.66436
-12.89744
-13.35495
-9.93685
-12.99028
-12.17609
-16.30321
-7.90597
-7.01205
-9.68071
-18.66365
-18.12507
-15.83447
-12.44340
-14.50129
-15.11680
-15.58051
-10.64338
-12.11075
-13.85979
-9.34069
-14.70213
-14.28738
-16.08704
-13.75038
-12.08896
-12.25222
-13.29301
-11.95143
-12.36599
-9.93105
-11.70008
-12.76802
-12.29720
-9.05199
-8.39270
-6.89907
-9.51504
-9.63098
-5.00379
-9.72240
-13.98592
-9.37405
-12.84814
-8.58684
-15.72451
-6.82166
-5.24906
-12.07568
-8.99979
-11.58901
-12.88622
-5.01574
-7.00765
-7.06952
-3.79830
-5.42610
-5.07121
-9.12747
-1.05683
-3.08799
-1.89376
-4.36959
-9.82320
-14.97357
-9.53868
-7.09406
-9.41432
-10.23865
-6.50672
-3.29854
-8.28372
-9.87251
-3.16531
-6.55517
-5.76310
-5.35757
-10.89158
-9.58681
-10.27406
-9.34541
-7.92084
-7.08298
-10.39368
-10.29079
-6.30671
-9.83373
-10.49603
-10.11526
-6.50326
-4.09366
-10.49530
-8.56498
-8.36482
-14.03161
-10.76692
-20.94581
-13.01243
-7.38443
-11.34420
-12.27193
-9.31057
-11.58591
-9.68323
-7.26746
-5.08481
-12.12108
-8.78217
-10.56921
-8.72722
-6.81446
-14.35898
-8.64434
-11.24504
-9.38994
-8.24892
-5.61717
-7.64051
-13.41948
-11.70783
-15.10145
-11.60915
-9.60176
-12.42171
-5.85485
-9.74317
-10.63089
-12.33181
-16.36640
-15.93948
-9.14603
-14.85728
-19.86631
-19.39618
-20.29292
-20.45654
-25.28578
-24.50900
-21.17480
-20.97224
-27.07364
-29.26638
-21.19532
-21.55894
-18.75466
-19.26864
-18.72553
-13.57038
-17.46590
-21.94306
-18.81858
-13.92124
-20.47060
-19.13688
-18.57121
-12.92612
-13.50378
-15.59551
-14.00828
-12.27517
-11.74849
-14.84500
-15.94484
-10.61793
-18.72743
-14.22371
-17.83454
-15.38132
-15.29381
-14.36688
-11.17924
-17.20480
-20.96696
-14.64022
-12.94875
-11.80021
-15.05916
-18.16547
-10.72818
-10.51116
-7.73380
-10.44918
-8.87264
-15.15547
-15.51343
-12.84099
-10.49299
-13.24925
-8.78959
-15.85364
-16.72282
-16.55402
-13.66789
-4.77500
-5.22074
-8.32448
-6.68512
-14.53029
-11.35461
-5.92296
-9.66564
-19.84294
-14.12202
-14.87918
-13.80791
-13.07586
-9.05945
-3.29477
-7.90362
-7.28021
-13.53897
-5.42309
-5.00546
-5.05494
0.10505
-2.78559
-5.11253
0.92042
-2.14728
-3.43018
-5.89148
-2.71905
-5.85677
-10.45883
-9.43408
-8.39669
-12.69179
-1.57129
3.12692
1.31795
-4.54434
-5.78166
-6.37477
-7.07536
-13.21365
-7.96409
-5.63228
-6.08060
-3.41126
-1.51182
-1.60071
-6.74303
-8.28646
-3.90447
-7.74057
-9.54674
-5.10943
-1.95750
-0.45605
-6.08048
-5.01978
-2.66174
-4.59150
-3.83759
0.86203
-1.43579
-0.11750
-2.39202
-3.85321
-3.91445
-3.08436
-2.76111
-7.67098
-5.75898
-7.10042
-7.12995
-9.09598
-3.51013
-2.70420
-10.65457
-7.33288
-8.50311
-3.90630
-8.45909
-13.31887
-10.96544
-9.88857
-9.41290
-10.61657
-11.46014
-9.28462
-8.61040
-13.07013
-13.38205
-14.97871
-11.41629
-12.80168
-16.09258
-20.26047
-15.74265
-15.84399
-17.73895
-16.50909
-15.75319
-20.77062
-11.20469
-6.35532
-8.39528
-12.72111
-13.50300
-13.53187
-9.49373
-13.11770
-21.05205
-20.33432
-15.41230
-20.71268
-18.91283
-22.17448
-18.81553
-16.88952
-22.22372
-22.88973
-23.71205
-21.75950
-27.25674
-28.64611
-23.52037
-32.79077
-36.99704
-35.30346
-37.41140
-35.64396
-33.05976
-38.61442
-36.58149
-31.39798
-26.00043
-31.98829
-30.49173
-34.78997
-34.01311
-26.47743
-33.20771
-31.20085
-29.65734
-28.39027
-36.04470
-36.87701
-35.83657
-23.85604
-24.26699
-30.75225
-26.84209
-19.49106
-22.69807
-18.13082
-19.34755
-26.93924
-27.13975
-28.86349
-23.23001
-21.01906
-20.87712
-17.04300
-23.50175
-17.02825
-26.48946
-24.88867
-10.93384
-13.40188
-16.62736
-19.27249
-16.11454
-18.39151
-21.80245
-18.34794
-17.72516
-13.40285
-14.71872
-10.85951
-14.77531
-21.95887
-14.91523
-18.09599
-22.12328
-18.54121
-22.28713
-29.29009
-23.89281
-17.66013
-10.21103
-14.24444
-17.01960
-12.32146
-16.70146
-18.38830
-21.46430
-25.07997
-27.31655
-27.82444
-30.87890
-27.37105
-22.50286
-30.58219
-21.31167
-25.14505
-25.09116
-25.75345
-19.84555
-20.30580
-24.56535
-25.46192
-31.11785
-23.35433
-21.31960
-24.27098
-29.93504
-28.32211
-30.26997
-26.62296
-27.85130
-35.88922
-39.20369
-33.59731
-35.86721
-29.39564
-30.66295
-27.18038
-30.53183
-32.71508
-30.43811
-35.05682
-32.80899
-33.47984
-34.54851
-31.89424
-35.64949
-33.45194
-35.79296
-38.55398
-39.63745
-41.76375
-36.35463
-34.90795
-33.10760
-33.89886
-30.00845
-29.97745
-30.43158
-34.04223
-32.98930
-28.77845
-29.66521
-30.43156
-31.52789
-33.68801
-35.18307
-23.55317
-20.79742
-25.13388
-36.25593
-42.98766
-39.10452
-36.21512
-32.71492
-32.96478
-37.66294
-46.98128
-47.04752
-44.36408
-43.25223
-42.11628
-36.79287
-30.34893
-34.53927
-30.32529
-26.55505
-27.21229
-30.19190
-25.65589
-32.49849
-20.74477
-25.03084
-23.71628
-27.34511
-22.87836
-22.49339
-27.78434
-26.09136
-28.97578
-22.37587
-30.61123
-28.48372
-30.49226
-32.22327
-28.07237
-23.85383
-20.84900
-11.31562
-13.71927
-13.76480
-12.94787
-17.59998
-13.26017
-14.05246
-11.56975
-14.59891
-10.35130
-7.05230
-7.97503
-9.99543
-12.41333
-15.35632
-14.00282
-17.72648
-17.09319
-24.57191
-16.87321
-13.93950
-16.35279
-9.03668
-11.50341
-13.73446
-21.76863
-14.70490
-24.90065
-21.64043
-17.85861
-12.60002
-10.30291
-10.50569
-11.82932
-13.51256
-9.57048
-11.15588
-15.54317
-9.28314
-9.96705
-8.67968
-9.09136
-5.27334
-14.46758
-6.95870
-11.51485
-11.67395
-19.22497
-18.19259
-6.00812
-9.06804
-8.54186
-10.85880
-10.22541
-12.61417
-15.20938
-10.56421
-8.55490
-9.61492
-10.63918
-11.38010
-12.17427
-3.64191
-7.15039
-18.24623
-15.62073
-18.02530
-14.75758
-13.86433
-16.26683
-14.85414
-13.58223
-12.75117
-13.03228
-14.47431
-7.51213
-11.73114
-11.43820
-13.24857
-14.74565
-14.12205
-9.95597
-10.65036
-8.56134
-9.86075
-14.14900
-17.02522
-12.88306
-16.96285
-13.22854
-19.36156
-12.40480
-10.41738
-10.46135
-14.20843
-12.04286
-10.09377
-9.69086
-12.22538
-13.67297
-10.92916
-8.41615
-10.53683
-8.85876
-10.08525
-15.20235
-13.21267
-13.40125
-14.25577
-19.08407
-14.40710
-8.60951
-10.98912
-6.19086
-10.31433
-10.84777
-12.32252
-14.64344
-11.21530
-10.80982
-15.84517
-15.84456
-16.08640
-14.96061
-12.13170
-10.81669
-9.48790
-15.56536
-15.67807
-17.64529
-13.14927
-17.13795
-17.94624
-14.48477
-14.44654
-13.67169
-12.01610
-12.39456
-9.89184
-16.95128
-18.41576
-13.16770
-13.67856
-14.64683
-20.18180
-13.34568
-21.81255
-15.37793
-15.94541
-20.05889
-19.80129
-17.48975
-21.67446
-20.31336
-16.63866
-20.52390
-15.75089
-18.66398
-21.43367
-14.44715
-15.85044
-11.35414
-13.45310
-14.24240
-13.26832
-10.63748
-9.83494
-16.92516
-17.06370
-11.54303
-10.71450
-12.41270
-8.20053
-9.71692
-6.08225
-4.96206
-9.89009
-5.35642
-9.70059
-5.81872
-8.90776
-1.81888
-5.58732
1.95133
-2.77065
-7.86031
-8.18772
-12.60993
-9.36306
-7.37095
-2.31070
-1.76060
-6.07400
-8.81887
-10.27419
-12.80924
-13.19157
-6.42530
-3.30241
-1.70857
-5.11284
-10.17495
-16.19968
-7.20643
-9.58597
-8.49449
-13.10046
-7.37516
-3.60031
-8.90692
-6.30073
-9.38067
-10.78432
-13.04912
-5.52853
-5.32975
-15.13985
-11.30652
-11.97983
-11.42795
-7.76962
-4.24492
-4.55330
-5.49143
-11.82644
-7.19697
-3.49818
-7.40833
-7.46656
-3.88915
-4.63350
-5.88217
-11.34558
-9.33113
-2.43727
-4.81004
-6.07099
-8.95627
-6.30443
-17.19016
-15.75090
-12.51900
-15.92209
-13.63972
-17.59331
-15.90828
-14.98275
-11.50385
-8.20807
-14.81724
-18.00260
-10.04583
-10.39912
-12.94375
-9.80644
-6.40989
-2.72947
-4.55093
-5.91886
-6.55381
-5.63474
-10.42884
-12.23568
-9.95258
-6.52310
-5.92170
-6.35655
-8.41352
-4.67134
-1.73753
-1.24279
-0.04849
-5.02095
-6.97587
-6.79009
-9.70308
-11.21182
-16.24988
-10.24399
-9.58293
-5.37959
-5.30903
-5.84357
-3.66333
-4.41812
-4.91401
-11.83181
-14.77301
-14.01834
-11.87214
-10.87406
-13.80644
-12.29448
-15.66233
-17.10281
-11.87219
-12.65675
-14.55835
-10.71109
-13.76270
-16.60987
-7.29483
-17.64394
-10.89795
-9.51699
-10.79489
-15.95286
-12.96782
-10.37817
-8.04024
-16.48408
-14.52036
-13.76327
-16.86030
-8.60135
-8.13684
-5.58858
-1.47143
3.04552
1.68706
-1.25635
-1.81724
-7.18319
-7.30459
-6.05857
-10.10618
-8.27945
-6.33634
-2.41492
-1.98979
-2.85048
2.15633
1.19003
0.19470
-0.94011
-5.89336
-4.75171
0.75549
-0.97482
-8.80208
-0.62601
-3.80862
-1.18968
-1.05763
-2.49655
-1.40293
-5.56986
-3.93587
3.22137
-0.57668
0.88524
1.30416
-7.45283
-10.68032
-12.24682
-16.53072
-7.72954
-11.49740
-7.22464
-9.10812
-10.58796
-7.70011
-9.35011
-6.14332
-5.74418
-6.61504
-0.88572
-5.13822
-6.25417
-4.12440
-12.17021
-9.11910
-9.12784
-14.28969
-9.62198
-10.75464
-13.68828
-12.57668
-12.72932
-11.45549
-14.31291
-11.60498
-17.88607
-21.36038
-15.97413
-13.09566
-15.78328
-18.43203
-16.60894
-15.35831
-11.22984
-11.21536
-16.52456
-8.28288
-10.94921
-13.33789
-11.14968
-11.60850
-13.94580
-6.81229
-5.37795
-10.48769
-12.27185
-10.62690
-12.59618
-11.45292
-7.84903
-12.67532
-10.37661
-6.26071
-10.26251
-9.84546
-10.47387
-10.20639
-7.96268
-13.71508
-13.21634
-8.17201
-9.71892
-13.44235
-11.53413
-15.13145
-5.73781
-7.54144
-6.37941
-4.37068
-13.24270
-9.02937
-11.70984
-12.81393
-12.23003
-15.14390
-4.32715
-4.82128
-6.38457
-3.60960
-11.71833
-6.94412
-6.94108
-3.08424
-4.22205
-7.59582
-7.18735
-4.43248
0.20871
-2.50069
-3.07337
-8.18228
-7.63867
-2.82044
-4.82696
-3.08973
-7.34555
-2.98699
-11.77190
-8.45877
-11.05304
-6.67144
-10.35334
-7.52920
-5.75377
-10.39718
-7.22581
-15.25359
-13.75615
-16.50959
-14.04464
-12.78704
-15.00885
-9.18846
-14.32123
-9.19193
-10.91900
-9.52607
-9.77370
-7.90219
-10.83648
-11.27627
-11.38140
-13.58450
-8.50931
-9.17378
-15.98869
-10.35628
-9.86098
-9.11018
-12.10073
-19.14964
-16.52364
-11.25071
-0.06457
-5.82111
-4.57531
-3.82240
-5.35599
-6.49676
-11.21585
-14.35102
-12.99348
-12.27285
-11.21766
-12.81667
-2.56719
-7.78477
-14.46564
-11.42210
-18.54628
-5.24286
-5.45412
-11.14341
-8.56253
-7.53616
-5.23293
-2.60924
-3.48808
-6.86363
-10.84115
-4.69148
-2.42985
-3.19011
-9.40127
-6.35320
-2.47105
-2.02455
-7.13996
-9.93203
-5.63307
-7.31677
-9.83827
-9.73484
-8.73656
-4.50405
3.47668
-3.07615
-4.29191
-10.48913
-8.59371
-4.06418
-4.99736
-14.15370
-11.70560
-10.43214
-10.55618
-9.33608
-6.69165
-7.30496
-11.90165
-9.26075
-5.01718
-5.82845
-8.13304
-4.51752
-3.50679
-6.96843
-2.43252
-6.18293
-6.78838
-1.34956
-8.41047
-5.82903
-8.65128
-5.03237
-2.09883
-6.84926
-7.14667
-4.85620
-6.88940
-5.20213
-5.44639
-5.40728
-5.32166
-1.91949
-5.62417
-9.54588
-2.76235
-6.39680
-2.10242
-5.31031
0.55234
-4.42246
0.94737
-0.33945
-3.90412
-3.15170
-6.68637
-4.76055
-6.95157
-7.82662
-7.18026
0.63958
1.22386
6.30848
3.77839
5.35805
7.92517
-2.37841
-2.36955
-5.63340
-0.29392
-1.85105
4.20001
-0.61081
-3.08068
-5.36559
-3.81620
-2.02587
-3.87296
-1.13193
-3.59489
-2.18770
-2.29082
-7.34245
-2.43950
-6.35234
-5.50148
-7.10704
-6.40340
-1.50546
2.82196
-2.42218
-3.92077
-6.86701
-2.11457
-5.40178
-2.58388
0.57934
-7.05028
-9.36678
-2.98042
-10.68088
-14.39610
-7.51630
-7.47370
-10.39628
-16.10735
-13.99037
-11.59939
-6.13888
-12.90420
-12.00786
-9.90865
-9.68184
-8.18569
-8.48150
-8.92357
-11.94249
-9.08036
-3.70241
-7.19136
-4.92982
-7.13775
-9.08249
-8.21654
-9.77201
-7.20505
-8.90586
-12.47727
-14.35999
-9.12281
-12.05945
-7.35507
-9.67763
-12.61041
-10.11654
-10.76142
-9.09889
-1.61439
-5.91642
-5.12871
-1.61818
1.57767
-3.57774
-10.11299
-5.57898
-4.62396
-3.55450
-11.46686
-5.39496
-4.42019
-6.78671
-6.54842
-12.21476
-5.81654
-1.56109
0.43823
-3.14896
-0.81936
-2.08013
-7.51750
-7.24877
-13.74655
-12.79371
-8.18868
-10.50009
-6.95336
-6.26503
-8.36793
-6.79793
-5.19720
-8.91433
-9.47483
-7.47123
-10.34853
-7.92957
-11.14694
-11.00865
-6.48623
-8.91529
-8.87798
-5.65700
-13.12464
-18.02161
-6.88631
-9.82273
-6.28601
-2.79547
-4.33873
2.80827
1.42696
-4.12507
-2.18561
-0.12334
1.84005
-9.81515
-8.05976
-0.91561
-4.38388
-0.57855
-3.46329
-2.47492
-0.94241
-1.14620
-2.20424
-0.32221
-5.40027
-4.32167
-4.14435
-10.11216
-9.86744
-9.15742
-6.02668
-8.92093
-9.40192
-9.92438
-8.58680
-7.10243
-10.75557
-9.00100
-4.58596
-7.08661
-6.04482
-12.29348
-5.73842
-11.09180
-12.42615
-13.07695
-5.59047
-9.71917
-6.23447
-12.69597
-8.99406
-10.77418
-8.39078
-9.79170
-11.94993
-8.33161
-15.10183
-15.40258
-18.13166
-16.15042
-15.03547
-11.15879
-10.07233
-14.29962
-12.17560
-15.78401
-13.80439
-16.38272
-16.91257
-9.63685
-12.12533
-16.65573
-15.05503
-14.53240
-5.91189
-8.24247
-9.77012
-10.43280
-11.58220
-14.15582
-12.82088
-22.10496
-23.29091
-16.57767
-18.02983
-17.13149
-19.97201
-21.71760
-19.97752
-18.05150
-22.47235
-26.72387
-23.77375
-20.42245
-19.78779
-22.22695
-21.97696
-18.07907
-18.83278
-20.85807
-17.65939
-14.44635
-10.98822
-18.77053
-16.65682
-18.32295
-19.28331
-15.95771
-17.46384
-23.65207
-16.93293
-11.57752
-9.16574
-6.50875
-12.98584
-16.11305
-14.10178
-11.88526
-9.03671
-8.53611
-12.26692
-15.21766
-13.30589
-15.04547
-19.56967
-15.68449
-14.71530
-11.01682
-11.76862
-15.86714
-23.38832
-16.25577
-13.03280
-10.50039
-10.64219
-15.19699
-14.78095
-12.26792
-14.22179
-17.64096
-16.83392
-14.17135
-17.45325
-16.91326
-19.94110
-18.81043
-15.53473
-16.73294
-11.15163
-11.76519
-12.99350
-15.06014
-18.57478
-16.16993
-21.19064
-16.32620
-21.86145
-22.58272
-16.44516
-20.84156
-13.31505
-19.92357
-17.61885
-27.28994
-26.67687
-21.24891
-23.34311
-17.17407
-17.16361
-16.97938
-16.82090
-20.27354
-16.81468
-17.74461
-17.45412
-23.12475
-16.93310
-23.49581
-22.00907
-23.45287
-18.66497
-17.20334
-15.98379
-17.48740
-11.97323
-11.97935
-19.05049
-20.60216
-17.21768
-17.27046
-5.25774
-8.79119
-19.26704
-12.12749
-15.61858
-18.97822
-18.76617
-20.68860
-13.85056
-18.18290
-13.19845
-12.57727
-16.79715
-16.21432
-23.69741
-18.20272
-21.98902
-8.28643
-7.99177
-8.19622
-13.43898
-11.67013
-8.30791
-8.65635
-8.17877
-14.90389
-11.20369
-12.39123
-10.21580
-12.40466
-12.32689
-13.23397
-7.64588
-6.87974
-8.59000
-9.81550
-3.00000
-8.39928
-11.49989
-15.26248
-6.07408
-8.55930
-8.34654
-7.64603
-8.36378
-7.90455
-11.08429
-9.00744
-8.06719
-12.98266
-17.17914
-9.58202
-8.15453
-8.29645
-7.34293
-9.76064
-7.78260
-7.86730
-7.69877
-4.52963
-8.97010
-8.39961
-7.01824
-7.49413
-11.73068
-8.41044
-5.49612
-9.99429
-10.44327
-3.31476
-4.09125
-2.53028
-14.70611
-12.35713
-10.81077
-10.43964
-10.25772
-8.40151
-10.51159
-13.40431
-16.69553
-12.43896
-11.87109
-13.57559
-10.84337
-5.56671
-4.79479
-9.26820
-2.66144
-4.85043
-6.96336
-4.99588
-9.38300
-10.71905
-5.80830
-11.59882
-4.94536
-1.29690
-1.04523
1.33853
-2.55199
-5.57057
-2.71457
0.76407
-2.88471
-6.04327
-1.14506
-5.82036
-2.30111
3.94844
-1.97607
-4.38023
-5.49165
-4.47889
-3.05379
-6.17285
-8.60926
-9.01141
-7.54701
-12.11846
-4.86411
-10.38786
-12.47527
-9.75282
-8.04143
-6.80231
-6.06771
-0.47254
-2.59953
-5.75822
-5.65737
-0.24854
-2.50488
-7.02190
-8.61161
-4.15852
-5.56600
-8.90097
-6.40044
-6.43881
-4.73287
-3.10726
-4.61272
-10.14221
-4.72949
-8.51390
-7.71078
-3.80280
-11.37842
-11.32842
-7.87613
-2.11530
-4.62822
-4.41624
-17.57657
-5.48897
-1.51566
-6.60560
-6.52559
-5.70978
-6.84586
-11.73889
-6.45158
-3.60112
-9.63597
-9.31875
-10.61178
-11.73434
-9.24760
-5.98242
-8.84219
-8.48155
-13.33618
-8.53975
-8.68689
-5.87024
-2.03790
-4.66810
-3.31438
-4.91124
-6.27411
-9.26055
-11.89703
-10.54186
-15.39335
-9.66821
-6.09363
-10.45336
-10.40419
-13.52862
-16.20505
-13.23209
-15.09210
-13.23940
-12.36707
-16.79828
-21.58003
-14.50250
-9.87271
-13.93598
-15.58543
-14.11798
-10.99087
-13.17995
-16.44361
-20.46081
-17.39349
-15.63721
-15.54295
-19.72955
-13.03020
-11.55195
-10.13070
-15.27073
-11.62039
-15.16808
-19.46672
-15.33672
-13.59874
-18.88294
-19.33557
-18.14855
-20.15265
-19.49372
-18.96668
-16.66777
-14.54776
-19.21633
-13.02550
-17.73875
-21.45537
-27.72746
-23.65303
-22.69026
-25.03583
-21.30261
-13.92689
-15.24291
-25.63081
-25.19075
-28.19112
-21.99147
-28.45758
-32.98710
-32.33117
-33.49240
-30.25660
-26.30642
-27.16769
-26.90382
-20.02636
-20.11549
-23.40823
-18.05032
-21.27892
-24.73934
-30.70078
-30.69963
-25.53285
-25.99041
-25.25726
-19.66838
-18.40474
-17.26657
-28.35246
-27.68007
-30.87552
-28.99068
-29.99471
-26.29573
-28.95226
-22.21944
-17.92672
-16.22395
-24.55346
-22.15909
-24.35540
-23.64439
-20.61653
-26.80637
-21.00061
-22.72192
-23.79634
-25.52933
-20.98391
-22.55522
-26.97700
-25.30041
-24.04404
-19.76886
-17.04823
-25.64947
-18.55404
-17.52956
-16.70086
-12.08040
-15.61542
-21.22405