-94.13016
-90.74764
-86.23446
-92.75840
-91.16130
-97.03782
-90.61627
-95.03981
-85.70546
-86.94770
-79.00827
-79.31692
-84.75243
-81.24061
-85.15258
-82.70635
-82.86529
-74.57717
-93.88524
-87.03226
-84.81814
-81.53017
-78.86800
-83.14089
-90.06182
-90.82704
-85.67111
-90.83674
-86.59497
-89.27824
-90.60862
-87.59585
-85.74339
-82.84703
-79.89932
-86.71625
-91.47376
-81.86239
-80.48367
-84.54602
-77.40057
-83.73768
-83.84831
-79.54054
-82.03824
-84.24441
-83.00631
-78.79549
-75.04600
-79.03955
-72.64867
-77.79306
-79.64489
-73.01980
-72.11623
-72.33521
-71.26333
-75.12074
-71.38966
-74.16522
-71.75096
-77.20320
-82.29758
-81.44162
-75.47242
-73.28362
-78.08256
-71.67391
-69.48454
-72.58640
-72.34758
-75.41015
-82.05651
-81.71196
-78.67040
-78.98369
-87.53400
-84.51009
-74.64462
-76.29811
-71.68398
-67.19231
-75.90135
-79.58412
-77.47672
-76.33491
-82.40583
-79.97541
-72.70055
-71.71448
-78.93573
-73.74824
-68.44937
-64.03512
-61.19730
-60.75348
-60.21611
-70.97549
-77.32298
-74.73950
-82.77997
-83.63580
-82.77676
-81.67290
-79.06007
-80.09165
-69.05300
-74.24767
-69.82349
-73.76286
-77.50535
-74.57211
-80.23972
-77.35856
-81.25466
-85.09508
-92.34722
-92.77411
-90.37015
-92.14471
-93.93434
-92.63059
-87.85890
-90.65868
-89.89149
-89.35575
-93.95278
-98.60441
-98.43298
-97.49981
-104.38788
-109.32105
-101.63625
-105.97314
-102.22949
-103.13363
-100.62939
-97.07555
-102.77831
-109.15296
-104.13010
-107.95111
-110.82866
-105.48631
-100.37840
-105.07293
-107.86687
-105.64048
-102.33372
-103.45572
-102.51046
-111.41022
-112.20571
-112.82622
-105.73626
-109.10897
-112.28174
-112.10715
-107.85047
-105.74682
-102.01438
-110.09347
-109.22686
-99.93965
-97.30045
-101.06214
-98.82949
-98.81528
-94.14059
-99.31118
-93.05920
-92.96609
-91.58192
-89.19380
-90.40639
-92.97055
-94.20129
-87.60722
-85.67801
-86.34795
-92.28973
-93.88238
-97.15045
-101.50561
-96.27581
-95.15288
-97.82316
-83.61367
-84.49251
-84.57864
-90.22188
-93.06288
-95.32265
-96.89223
-90.56920
-82.28692
-87.68667
-87.82521
-94.81193
-94.19525
-102.56863
-103.41151
-109.91961
-104.26041
-109.80607
-111.68056
-113.02460
-109.10602
-114.85744
-112.85962
-111.69400
-106.62481
-103.64557
-108.21209
-102.75155
-108.26148
-112.16010
-104.49196
-102.20618
-92.37698
-97.51593
-99.28767
-101.67602
-103.48332
-105.79308
-102.16774
-101.86739
-93.09204
-99.55596
-96.15735
-94.01373
-95.88381
-82.73657
-89.22150
-93.41758
-94.87918
-96.78316
-94.24407
-96.57849
-94.44064
-98.02284
-97.15568
-97.43051
-94.25252
-92.13566
-92.83806
-91.68456
-94.70406
-97.86665
-98.81288
-99.55518
-91.93071
-100.80978
-98.93090
-98.21665
-94.73765
-100.97992
-93.67797
-95.28093
-91.16331
-95.44561
-96.81054
-87.82293
-94.33320
-92.46429
-96.27558
-94.58541
-90.84593
-100.86443
-105.36274
-92.22573
-96.09265
-92.26614
-93.26978
-100.48007
-97.38725
-94.26146
-94.46176
-99.24591
-103.51048
-101.41248
-98.65352
-102.26398
-105.81203
-100.34122
-97.79415
-103.61012
-110.00396
-108.75624
-97.34441
-95.93731
-98.46864
-91.19943
-85.05417
-90.38064
-97.04605
-96.55625
-99.15417
-99.16253
-97.29991
-100.73229
-103.90812
-102.20611
-91.22744
-94.34096
-88.30726
-94.17705
-95.99130
-103.41545
-104.05513
-102.67978
-96.59468
-98.29362
-104.32372
-107.31028
-101.06623
-98.78782
-99.35891
-106.56113
-94.87933
-96.09752
-94.94284
-95.90607
-99.89556
-98.28062
-106.74625
-96.55394
-99.83889
-102.72772
-105.22762
-99.96468
-96.94797
-101.81196
-101.77548
-103.79115
-101.36723
-99.87632
-99.91597
-103.93977
-94.12233
-102.30879
-99.69791
-99.57966
-98.38515
-100.61269
-103.81728
-95.09794
-102.35132
-103.84383
-99.54394
-98.26207
-97.39641
-98.84414
-103.88012
-103.90710
-101.70017
-106.42734
-99.40919
-101.54507
-97.60092
-89.93223
-97.65623
-98.69356
-94.90320
-95.21360
-101.48121
-98.01315
-98.45154
-97.98029
-93.06236
-93.86061
-92.72165
-90.42702
-101.45420
-94.05230
-97.59027
-97.09462
-98.28651
-92.91477
-86.51717
-89.82141
-91.54113
-90.88769
-82.38980
-81.71355
-87.12123
-87.46374
-84.24861
-83.46408
-87.54505
-86.09103
-94.01670
-94.12523
-91.91510
-86.16716
-87.25008
-90.40190
-88.06888
-94.20274
-93.57114
-88.84164
-90.36204
-86.34780
-90.36647
-88.87857
-90.44363
-89.20104
-99.33149
-90.13759
-95.93133
-104.63301
-102.76372
-100.37846
-99.82328
-92.23518
-92.44000
-98.68070
-97.10263
-93.70241
-97.85396
-94.12649
-93.18726
-94.75484
-89.36566
-89.44250
-91.28562
-92.23105
-97.32314
-92.86248
-96.24971
-100.98863
-97.84652
-100.89922
-98.47886
-96.75143
-95.37695
-96.24074
-95.81091
-104.25472
-103.69637
-102.44779
-103.53817
-94.96027
-93.46271
-96.37910
-96.22389
-85.61085
-96.97348
-99.80781
-96.33929
-98.65689
-102.76707
-100.57605
-92.72092
-94.47714
-87.37776
-86.16515
-92.57021
-87.93974
-86.68646
-91.49772
-89.22940
-91.62095
-91.53894
-89.12809
-95.65369
-94.00825
-91.47934
-99.19586
-101.79154
-103.73651
-103.87122
-98.35074
-100.56843
-101.21900
-98.21711
-95.98567
-91.97669
-94.10256
-94.60109
-91.42135
-88.25621
-90.52491
-96.45451
-94.09363
-94.04514
-92.23478
-92.67265
-95.86712
-99.97542
-96.72794
-89.40408
-87.08668
-88.13127
-85.39107
-91.84262
-98.09201
-89.27120
-84.15765
-92.33865
-96.12964
-95.89681
-91.02308
-93.09356
-95.57367
-94.77240
-97.03224
-96.14302
-96.74924
-96.39464
-89.16684
-95.60075
-95.79376
-94.61032
-92.80531
-92.86764
-83.15625
-87.41773
-88.91245
-87.46908
-92.25393
-85.89506
-92.01872
-89.17046
-86.46181
-85.38219
-94.31584
-88.69740
-92.21903
-93.01263
-95.13090
-93.73415
-89.51548
-86.03955
-87.15959
-89.53384
-94.88280
-90.27029
-91.07499
-93.82638
-86.59662
-93.64909
-90.61491
-93.21199
-96.02872
-96.16430
-97.82451
-94.56379
-94.32150
-90.89164
-90.02943
-91.57475
-91.18661
-88.92738
-90.86959
-85.51883
-85.70529
-85.46861
-79.96046
-88.25608
-90.58840
-90.35134
-90.43007
-87.57346
-84.74723
-83.84027
-92.28750
-82.13800
-81.46727
-85.76166
-86.34878
-84.43974
-86.88348
-85.73229
-87.74798
-90.54033
-81.91250
-79.43592
-84.36847
-85.15373
-90.77649
-84.26404
-83.10794
-89.12901
-84.63021
-92.09699
-100.44988
-98.56732
-93.78957
-85.14570
-89.83599
-85.40092
-90.59342
-86.70393
-88.41487
-93.23650
-90.30254
-95.70604
-90.09130
-88.78093
-83.56240
-94.57390
-92.42371
-88.96677
-82.60383
-81.92253
-82.09468
-87.88702
-91.95679
-98.01160
-96.15455
-100.61452
-96.99715
-90.21278
-93.73418
-103.82016
-98.76110
-102.63482
-105.32330
-96.38565
-101.44583
-99.03581
-103.92491
-98.29398
-96.25765
-109.01018
-105.50957
-103.08290
-102.69043
-98.58065
-99.87603
-102.89093
-102.64488
-91.55843
-90.34760
-94.56688
-94.03209
-98.19659
-105.27083
-99.27162
-102.48587
-98.68575
-102.29779
-101.55938
-95.65968
-96.22249
-87.89297
-89.39615
-97.39302
-100.93676
-95.19455
-96.04301
-104.60308
-96.76901
-99.34125
-101.32330
-100.28634
-93.95777
-88.81309
-83.37808
-90.36885
-87.11729
-93.94649
-99.56621
-96.77042
-96.26247
-96.54131
-91.14450
-100.66280
-97.08581
-94.88026
-92.57166
-105.45509
-111.15136
-95.85253
-100.28054
-100.13241
-100.63033
-95.97323
-102.77663
-101.83796
-107.54590
-106.94505
-113.66091
-107.57834
-102.75220
-112.16313
-103.70198
-110.65559
-104.86290
-99.79044
-98.32657
-99.72263
-103.03689
-108.19025
-106.15514
-102.92834
-102.29738
-106.70927
-102.57800
-103.31376
-99.44650
-107.30363
-108.86854
-103.94275
-102.74230
-109.20984
-104.35129
-106.53511
-101.24765
-101.92456
-101.98170
-102.80589
-106.94685
-102.23705
-104.00075
-103.97311
-103.03070
-100.01876
-98.95904
-104.81695
-107.36031
-107.44334
-109.86134
-120.84885
-105.94914
-112.91445
-111.55688
-107.79871
-104.51333
-111.57190
-116.55478
-110.16498
-112.43870
-108.77211
-107.28352
-107.86391
-111.03666
-107.65437
-96.45507
-102.70803
-106.94916
-107.83990
-111.25235
-103.59786
-98.96029
-107.38192
-105.18117
-108.13785
-111.74044
-111.24272
-102.58832
-101.29935
-102.00652
-97.00922
-102.20963
-100.82066
-102.13089
-96.72902
-97.87614
-104.25560
-100.18986
-104.56744
-111.10602
-103.04713
-106.75766
-105.03698
-109.02182
-106.74833
-104.38017
-97.98730
-100.84544
-100.71519
-91.79549
-94.90865
-96.95782
-95.33139
-95.99170
-94.38425
-100.72970
-99.13815
-97.81749
-99.19318
-98.22034
-95.46702
-100.79020
-97.88295
-99.74140
-97.81249
-97.29107
-99.75254
-99.30911
-97.49780
-102.78491
-100.60678
-97.59006
-101.21890
-106.95271
-110.06537
-109.28269
-117.68091
-117.00842
-117.49660
-112.68274
-116.10533
-111.00891
-115.31841
-111.18436
-110.93233
-107.33279
-108.50629
-107.21833
-111.19937
-106.39319
-105.98798
-107.86857
-107.26694
-101.99755
-108.97231
-105.65687
-105.22665
-103.00036
-101.17125
-106.18340
-108.26980
-108.29945
-106.44111
-105.52358
-106.83248
-105.66746
-111.54300
-114.32956
-111.04943
-110.64518
-110.62524
-109.39686
-107.45757
-107.48571
-103.57732
-105.46917
-109.49350
-115.07804
-109.27036
-109.43431
-100.84705
-104.91024
-113.43478
-108.80694
-102.01517
-105.88459
-108.80908
-117.58724
-110.32621
-113.71122
-115.20270
-111.61457
-108.74060
-106.72919
-105.55817
-104.01314
-109.33257
-103.19428
-104.52240
-99.70601
-98.17530
-100.37109
-104.10184
-106.49067
-105.60391
-108.87735
-110.44039
-112.54059
-109.38070
-99.30633
-104.99848
-104.05728
-107.85359
-102.41834
-94.74586
-93.62462
-96.11041
-97.99082
-95.35894
-96.11643
-94.10600
-87.84688
-82.99860
-91.49884
-91.97769
-95.99626
-96.97605
-92.68087
-89.40618
-93.20322
-94.25469
-94.76093
-92.03892
-93.42541
-104.57622
-104.78985
-101.18642
-101.67203
-95.52973
-96.92780
-94.42099
-98.67162
-91.72660
-98.85531
-95.91799
-90.04700
-91.32723
-88.25917
-93.71491
-100.75738
-99.10038
-97.46031
-96.69430
-93.78799
-88.89090
-89.77372
-95.88180
-90.84154
-88.70592
-89.71654
-93.37816
-83.93450
-93.38813
-93.45759
-100.29292
-96.43049
-96.77119
-94.68041
-93.38103
-98.18638
-98.68031
-98.02258
-93.46664
-91.86213
-94.79786
-98.17940
-92.78422
-95.37069
-97.20890
-95.22095
-99.57625
-102.36306
-105.42457
-98.55100
-95.08146
-96.07938
-101.30657
-98.31837
-99.42961
-99.13877
-101.07666
-101.51099
-104.33958
-99.36788
-99.06905
-98.68843
-107.23932
-105.42373
-107.98275
-104.48275
-105.85684
-108.67606
-103.91167
-101.35095
-103.53482
-113.48309
-106.78125
-108.08181
-109.37274
-112.60941
-110.98950
-106.69074
-106.36416
-105.44785
-110.95787
-99.69779
-111.40726
-109.03315
-115.01951
-109.61861
-109.61518
-111.68296
-107.54748
-106.49573
-103.36469
-106.85962
-104.42081
-116.21224
-113.47557
-108.06042
-109.49419
-109.64790
-109.21410
-111.19434
-112.51746
-113.38375
-115.08314
-115.51665
-112.19617
-109.83446
-112.49691
-112.31630
-106.64153
-108.74669
-112.55715
-104.74423
-106.42363
-105.54953
-100.33466
-97.00107
-98.75176
-98.42999
-104.75325
-101.03375
-109.27548
-107.74355
-109.76214
-107.74658
-94.98321
-98.49458
-99.00534
-99.60963
-104.49904
-101.20291
-106.03665
-107.12472
-104.33843
-104.67521
-109.67368
-109.10537
-114.08543
-107.45337
-107.66780
-108.90859
-107.42867
-110.04370
-108.22531
-112.56068
-110.41894
-108.94275
-105.22101
-106.03004
-107.70174
-115.88505
-116.36580
-111.39159
-102.26334
-101.69224
-99.08979
-93.72541
-98.16937
-103.57706
-102.29042
-106.50417
-101.13029
-102.46764
-96.28427
-99.71949
-103.69303
-97.94812
-100.47723
-103.35798
-103.27433
-109.04423
-100.45760
-104.57163
-105.11726
-100.53366
-97.89335
-101.66731
-95.68082
-101.60394
-104.82255
-108.03092
-105.26087
-106.58592
-112.48612
-112.35610
-112.90835
-108.79344
-112.04973
-117.21628
-113.76627
-109.19600
-107.22672
-105.95540
-108.05867
-106.22272
-114.02102
-111.78582
-112.69195
-110.99418
-111.44302
-106.64201
-107.65036
-110.20550
-107.90796
-113.12697
-114.08827
-109.06941
-103.15871
-111.23945
-107.20012
-112.63063
-113.47222
-109.81738
-114.76470
-111.49572
-111.61392
-119.13383
-114.21133
-111.88801
-110.49186
-111.60536
-114.78771
-113.82832
-109.61662
-106.90284
-105.25588
-109.59897
-103.29052
-106.24762
-105.01943
-109.44127
-107.36219
-107.66473
-108.76468
-106.77791
-113.19246
-105.32239
-111.87761
-105.17344
-103.39964
-106.80444
-104.58264
-112.85322
-113.62245
-112.73087
-104.50183
-103.55864
-109.54943
-113.84926
-105.84830
-114.20927
-111.86382
-99.69921
-109.17026
-108.56986
-104.14215
-108.73258
-103.25675
-108.22629
-105.41263
-109.26025
-104.11049
-101.67345
-102.42152
-106.13441
-106.00619
-113.04363
-110.51839
-101.03510
-97.12188
-102.15469
-99.88351
-92.42796
-93.04194
-97.80796
-100.37024
-105.20108
-100.58675
-101.89596
-99.77145
-107.51188
-104.28116
-102.04779
-102.10645
-100.14439
-108.53674
-115.10986
-106.74354
-113.13782
-109.24202
-107.60743
-108.17273
-98.06879
-105.64069
-98.81883
-93.70551
-109.56853
-110.92520
-101.01526
-106.61064
-98.37131
-104.76725
-98.21058
-98.85825
-96.90480
-105.49125
-108.13042
-100.90830
-102.82965
-100.09040
-97.98351
-96.10522
-94.43525
-99.93890
-97.77848
-99.73270
-90.04757
-95.11631
-93.71305
-96.62557
-97.37530
-102.06175
-100.24838
-94.67657
-96.01697
-93.44864
-102.26001
-95.23870
-101.84374
-97.68155
-96.75702
-94.16016
-94.23945
-97.14363
-100.54210
-102.89108
-105.96488
-104.14569
-110.34333
-108.27165
-105.37428
-103.01973
-106.11657
-106.96636
-108.84487
-113.15072
-110.37053
-111.61281
-107.37535
-100.31466
-104.53427
-108.04214
-109.56901
-106.29233
-105.48332
-106.66007
-104.90083
-98.89554
-102.65524
-99.83375
-102.56802
-103.15900
-102.88335
-107.82623
-102.06801
-103.19861
-108.74740
-107.19447
-101.66964
-105.31401
-107.09156
-104.62690
-103.04671
-106.09964
-99.44131
-102.79290
-113.15971
-109.02748
-102.30881
-108.18964
-106.73338
-100.25871
-102.69804
-110.08987
-100.96664
-106.36470
-102.93915
-106.04985
-100.46722
-100.24127
-103.24770
-105.50336
-98.56775
-92.68760
-98.23834
-93.31841
-93.52001
-90.78702
-93.10765
-91.94227
-96.86072
-101.78404
-97.35589
-92.22350
-94.83010
-99.03484
-97.90327
-99.79930
-95.24251
-97.97762
-97.52086
-98.44471
-99.10316
-101.84926
-107.59148
-100.71068
-98.38833
-94.33209
-92.24610
-93.73534
-103.22229
-98.99250
-102.82653
-105.64385
-103.37412
-103.60735
-109.54021
-108.40230
-108.05823
-99.42540
-103.23297
-105.03980
-107.45822
-108.33896
-101.67384
-105.23164
-103.79797
-100.77557
-97.09465
-97.35418
-107.84363
-108.45943
-102.77861
-100.35679
-98.86628
-98.69987
-98.72902
-96.00991
-103.30061
-99.77738
-98.34173
-101.86242
-104.89415
-93.74728
-95.38234
-102.38500
-102.55664
-96.94475
-104.34586
-98.24105
-93.94726
-91.76116
-97.78569
-96.58183
-92.31438
-96.25568
-93.23656
-86.22538
-86.61817
-90.58302
-93.32205
-89.26636
-94.03749
-93.80348
-92.22679
-90.54746
-93.53123
-94.01426
-102.20379
-99.39394
-100.00708
-95.86064
-95.95324
-104.09674
-105.07354
-106.58521
-101.61223
-104.68003
-100.77520
-104.44773
-104.91143
-101.10695
-106.27107
-100.61045
-104.17143
-103.12708
-104.75406
-99.43890
-91.71148
-101.71729
-97.55733
-103.24355
-105.54149
-103.61691
-97.25430
-96.87851
-101.47241
-102.94332
-103.07234
-105.02304
-107.17448
-104.19273
-99.01297
-104.93463
-108.28865
-110.33147
-103.81242
-98.11332
-105.10062
-106.95800
-103.31007
-98.35884
-101.91266
-98.59881
-95.16570
-97.63533
-96.05103
-99.09269
-108.98054
-98.63075
-103.30824
-98.97000
-94.55237
-97.88177
-97.29358
-102.35029
-97.38339
-91.55198
-92.10586
-93.02823
-91.87331
-91.50293
-90.25486
-97.39859
-96.87792
-96.79004
-95.57454
-92.03856
-92.64794
-90.95471
-95.64588
-92.88157
-97.17355
-98.71402
-97.80419
-98.81719
-104.52383
-97.73530
-97.39038
-90.73840
-100.48811
-101.51238
-104.42662
-100.59785
-100.96979
-97.65934
-93.40461
-96.47444
-95.66242
-94.94374
-97.91564
-93.48951
-95.31429
-102.55493
-106.12977
-97.74827
-96.11788
-97.89115
-104.66905
-104.81785
-98.44713
-98.65464
-93.72931
-93.84442
-97.32269
-98.30044
-96.72848
-91.43425
-100.28367
-100.93993
-100.29509
-101.27125
-105.87583
-103.17220
-101.07998
-98.37667
-96.89994
-96.90259
-98.67981
-97.14532
-94.51917
-93.46846
-94.80605
-93.32448
-97.36706
-96.71767
-99.00641
-98.33464
-101.06782
-98.54932
-102.39905
-102.13472
-100.59668
-99.82449
-97.48555
-96.32953
-92.25273
-94.73441
-100.77350
-107.96544
-107.49505
-108.09268
-106.43238
-108.63041
-104.57168
-99.18725
-110.19998
-101.68612
-109.68912
-112.14896
-103.34234
-101.66127
-104.08360
-107.81118
-113.58111
-108.24532
-95.57693
-105.01841
-100.41503
-101.73186
-94.62307
-96.05315
-103.67264
-101.91603
-105.41140
-107.31221
-109.32398
-113.76080
-109.17948
-105.36787
-107.13031
-103.79826
-106.02241
-106.01232
-109.89777
-106.69689
-107.04360
-103.16589
-100.31853
-101.73724
-102.66082
-100.15736
-100.99714
-100.11456
-96.91472
-99.73767
-100.74469
-104.76966
-99.43370
-94.56867
-96.69625
-103.98946
-101.25990
-99.94117
-94.82334
-95.30539
-100.66926
-102.47119
-98.78127
-99.12844
-98.38138
-99.58123
-94.70319
-90.94528
-93.05025
-100.79490
-100.95240
-98.79178
-101.66572
-99.40009
-104.25241
-99.39685
-102.71814
-94.05225
-94.67314
-100.22451
-97.73311
-101.53483
-107.00781
-105.65173
-103.08825
-97.45926
-101.20873
-101.63109
-104.18365
-101.89830
-99.59012
-100.16437
-101.47100
-99.83733
-99.34226
-108.21000
-105.09716
-110.43018
-107.56038
-106.88375
-100.21208
-99.47114
-106.02163
-107.25533
-100.96835
-98.14440
-101.28079
-102.66918
-106.97930
-107.65891
-108.75571
-102.88297
-102.76306
-102.60662
-101.48934
-95.13166
-100.71674
-99.45648
-104.48871
-104.75766
-100.95875
-103.70881
-104.23881
-107.78019
-94.54275
-101.36224
-106.34998
-105.70097
-107.36436
-111.13480
-109.06730
-105.78473
-103.25621
-104.81545
-105.43308
-106.70615
-100.54598
-105.02138
-105.62010
-112.44718
-106.15636
-105.23895
-112.43110
-113.84497
-112.29949
-114.10534
-116.80917
-117.45334
-108.84210
-104.38047
-111.65169
-110.18824
-111.90532
-111.48716
-103.96317
-109.65078
-107.54085
-103.37314
-97.77457
-102.38455
-102.07662
-105.06956
-96.96580
-97.55468
-102.99966
-102.53655
-108.55815
-109.06358
-104.12841
-104.52588
-107.40136
-110.02131
-115.56255
-113.09709
-110.37753
-105.05437
-106.16653
-106.35162
-101.47335
-104.64511
-103.71660
-101.40945
-104.09601
-108.44942
-105.42857
-110.24831
-102.43542
-103.60677
-100.66560
-105.06813
-105.95979
-101.62625
-96.83048
-103.84198
-101.34766
-105.38845
-103.98618
-104.33044
-104.69555
-107.05606
-106.00056
-106.67821
-104.20954
-100.52500
-104.95977
-105.49068
-103.68608
-109.17854
-108.62237
-106.82999
-110.25599
-115.95288
-115.92770
-105.43356
-108.96071
-110.48251
-107.11657
-108.32162
-107.75953
-102.27527
-105.32085
-104.38732
-109.10195
-110.59451
-113.51542
-109.55894
-107.00332
-112.07903
-108.50500
-105.64745
-106.22555
-106.70148
-106.84539
-107.46671
-109.92235
-111.46793
-107.86200
-110.70955
-109.85332
-112.32588
-116.81191
-108.17318
-104.58870
-101.13679
-105.57743
-115.97023
-121.27421
-109.34588
-112.50323
-110.07020
-111.35195
-114.67865
-112.43537
-108.76542
-113.47970
-109.49520
-106.89041
-111.30254
-111.67807
-118.88182
-107.72634
-104.09992
-111.10320
-116.80544
-114.68645
-116.71739
-111.31499
-113.06284
-119.45295
-115.96437
-118.90110
-113.16632
-114.13442
-111.47554
-111.44954
-113.11489
-117.35102
-111.75916
-117.14791
-112.53788
-108.02477
-109.85389
-107.96902
-111.24660
-110.50264
-115.49729
-114.67746
-114.55261
-111.69338
-105.51616
-110.61196
-100.55931
-106.53615
-109.81011
-113.55888
-113.00551
-110.52347
-104.26971
-98.94866
-107.70669
-110.04353
-109.71711
-105.29225
-110.27175
-110.03638
-106.46791
-112.09149
-118.74594
-114.16974
-118.59689
-114.73978
-116.22570
-115.85144
-111.27626
-114.42038
-115.05091
-117.42996
-112.10011
-109.49118
-110.95050
-110.41766
-106.09358
-107.60081
-105.78004
-105.28840
-109.65870
-112.13040
-107.85383
-101.54839
-105.85845
-93.88488
-107.02526
-103.53313
-115.22532
-109.81496
-106.14675
-106.29332
-111.57719
-109.54279
-111.10238
-102.88499
-97.71299
-109.73763
-110.17735
-105.22154
-108.46394
-111.26526
-112.84731
-113.21565
-113.44773
-114.94361
-108.32526
-111.20360
-110.25062
-107.09110
-109.86571
-110.66190
-114.06542
-102.06731
-113.41590
-107.66457
-110.45279
-114.06702
-114.56049
-113.26406
-110.55260
-116.89065
-115.04315
-114.07509
-108.98269
-104.55554
-106.14660
-110.46579
-109.73075
-107.75726
-105.49718
-96.73142
-98.28240
-108.66728
-111.26669
-105.36681
-112.20720
-107.63663
-102.86180
-107.18769
-110.90757
-110.82711
-110.58255
-111.96158
-115.94067
-119.21407
-115.19000
-120.47876
-115.25685
-113.73359
-124.11238
-125.55142
-127.05520
-122.52227
-119.08033
-126.06133
-116.77728
-115.28000
-115.03519
-117.02489
-121.05417
-122.35360
-119.69504
-117.18892
-114.01954
-114.99251
-119.71690
-116.42813
-119.62155
-121.78093
-118.32468
-121.40040
-118.57987
-116.86288
-117.67999
-119.41338
-120.27922
-122.85479
-122.04486
-122.55100
-117.35900
-118.31140
-118.15461
-120.71615
-119.70353
-119.25984
-117.96167
-118.90024
-112.28303
-114.93447
-112.80792
-110.92870
-122.20032
-126.63806
-128.44868
-118.10112
-110.96448
-115.21249
-120.71358
-118.22696
-117.76640
-110.50239
-103.93471
-108.45070
-111.58639
-109.84992
-110.42727
-117.91432
-113.06205
-116.60216
-113.35496
-111.56952
-111.44160
-110.86953
-117.60125
-116.35466
-109.29236
-108.48829
-113.69070
-106.67514
-113.87408
-112.13550
-116.26895
-114.95107
-117.04783
-120.00718
-119.62979
-119.86831
-117.11694
-116.30064
-112.95343
-115.22264
-116.03095
-112.76269
-113.53002
-115.16483
-118.26046
-113.29227
-117.72908
-118.85282
-116.32434
-114.06189
-115.69694
-115.40134
-115.74646
-118.33832
-113.79373
-113.17179
-106.23849
-110.54930
-114.52760
-110.04913
-111.75019
-109.81699
-113.14604
-111.30795
-112.03267
-109.30047
-110.65428
-115.46037
-118.63423
-117.63852
-117.72300
-119.15717
-116.20414
-119.53174
-123.13127
-114.60284
-111.49198
-115.10788
-117.88869
-118.72383
-117.05872
-115.72159
-108.07371
-109.22061
-110.17031
-112.70437
-113.56792
-117.69733
-113.58587
-114.13266
-113.14091
-114.17830
-114.65284
-116.92732
-107.90717
-112.85666
-115.15262
-117.33365
-123.62526
-117.98505
-112.51675
-115.51722
-108.39095
-104.59621
-108.61318
-106.30170
-112.60668
-115.92029
-120.81356
-112.86602
-108.98430
-111.08958
-112.32874
-116.67193
-115.43282
-116.06607
-114.99686
-107.95666
-112.67648
-118.82408
-112.13624
-120.80268
-114.23876
-111.87660
-108.06005
-107.42731
-110.69598
-110.65421
-110.11920
-118.62126
-117.97649
-122.77783
-117.05385
-116.26642
-111.68372
-111.59252
-120.39565
-117.37856
-112.06411
-108.00138
-107.57575
-108.50488
-110.60339
-113.04548
-115.39516
-116.96340
-113.32883
-119.30505
-118.25757
-114.79476
-117.60984
-118.53004
-115.81520
-114.88695
-117.15667
-123.19219
-118.65492
-117.27706
-117.86539
-116.43490
-118.48960
-115.75854
-119.54674
-115.16103
-119.42430
-107.62028
-114.09614
-121.48289
-116.34772
-116.04515
-106.04424
-119.16397
-115.27266
-117.58978
-119.29773
-123.75711
-122.37197
-124.49174
-123.69610
-120.68313
-119.20609
-117.83698
-117.31735
-117.04396
-113.69541
-122.62639
-119.40310
-121.38526
-124.10537
-118.26014
-120.12285
-117.87050
-114.88497
-104.39803
-118.75440
-118.46943
-112.01625
-117.08765
-120.58481
-114.84033
-121.02531
-117.04048
-118.47765
-125.23665
-123.90759
-124.09516
-126.21280
-119.82281
-122.51289
-113.77121
-120.38973
-117.08279
-119.60549
-117.98765
-120.31392
-121.04270
-124.13732
-119.07329
-121.58022
-123.44083
-119.72719
-115.39139
-114.66372
-119.25811
-123.08726
-123.10588
-115.70693
-116.28534
-117.56317
-116.67491
-122.46074
-113.88746
-111.18992
-118.58307
-113.98193
-112.78011
-113.58926
-111.23173
-108.41793
-113.21251
-110.26496
-112.26021
-116.24836
-114.66522
-108.75618
-107.92838
-111.45156
-109.17236
-100.25898
-108.15508
-105.97245
-109.21492
-103.87085
-105.74789
-108.64271
-114.62068
-118.00179
-111.36435
-116.59555
-107.25160
-111.19080
-117.40122
-112.36915
-115.55340
-115.56133
-112.96200
-109.98927
-113.04121
-115.02303
-115.68244
-117.56888
-113.03206
-119.82069
-117.16060
-112.05345
-115.85794
-113.24965
-114.88382
-119.92290
-118.24302
-117.89875
-113.17161
-113.51747
-122.30933
-117.29212
-119.65262
-119.12024
-115.76417
-114.97406
-117.35539
-118.46514
-118.88061
-120.18588
-112.87047
-118.87518
-117.99137
-108.28393
-111.87817
-117.15189
-111.30744
-113.45668
-114.23607
-106.09152
-112.53486
-114.47567
-108.13612
-105.22618
-108.84378
-112.28237
-111.19376
-110.92430
-114.73921
-115.08873
-114.11259
-114.05855
-115.29250
-118.57665
-112.34896
-117.04903
-113.09904
-108.97940
-114.01422
-108.82914
-110.63793
-111.29797
-113.95044
-111.91749
-109.09124
-116.62437
-109.48849
-107.00762
-116.06030
-100.53015
-105.55834
-109.32530
-106.64695
-101.00220
-101.36489
-104.75923
-104.73160
-104.91115
-104.28943
-108.30569
-112.06645
-102.19281
-107.56116
-113.54030
-111.29577
-106.39663
-105.82871
-113.54966
-120.53362
-112.61579
-113.94853
-115.40508
-116.68736
-114.12372
-108.65788
-112.38946
-109.84855
-111.40184
-111.33737
-110.38996
-116.74095
-114.81275
-112.90907
-112.71850
-114.78859
-117.49316
-116.17129
-120.09820
-115.55309
-111.55161
-111.01426
-112.59976
-108.49233
-107.57225
-108.26714
-106.10646
-112.99207
-111.13607
-105.21105
-106.15365
-108.52929
-108.54705
-107.56754
-103.49970
-110.68596
-111.79668
-110.41855
-103.78792
-104.27177
-104.74566
-101.82840
-106.96269
-105.01861
-106.92467
-105.91543
-110.57856
-114.85045
-113.32626
-112.19999
-112.99631
-117.90581
-115.08626
-113.96531
-113.00401
-116.24611
-113.98306
-112.26617
-114.10643
-116.45205
-114.87839
-113.05341
-110.61921
-112.87785
-114.65427
-115.51604
-111.38444
-109.00603
-109.79832
-112.30576
-110.79585
-114.68173
-110.51963
-111.57361
-120.12238
-109.01518
-113.49415
-114.72180
-120.28751
-118.12096
-111.16362
-112.55469
-109.06507
-109.59916
-112.89448
-108.74040
-109.90495
-116.38037
-119.19350
-116.25907
-112.18078
-119.14652
-114.99261
-111.02059
-113.62739
-110.13310
-113.02002
-111.96650
-108.33692
-108.69331
-107.36273
-111.35234
-115.93658
-111.45080
-111.30999
-106.12212
-108.86994
-111.25572
-109.17650
-110.78915
-105.40195
-109.61297
-107.97459
-113.99465
-114.75451
-111.00210
-118.77213
-112.66581
-115.23783
-112.08545
-113.32027
-112.34259
-115.11159
-115.55154
-111.76116
-117.48310
-116.76031
-118.21077
-113.11265
-114.79612
-112.87694
-106.79854
-106.96799
-109.44294
-111.10751
-113.58432
-116.22120
-115.25274
-113.84600
-108.65736
-105.72728
-109.53266
-114.06621
-107.35929
-108.82833
-113.00712
-111.35599
-111.80170
-109.42265
-107.01434
-109.96062
-111.58015
-109.68129
-104.54520
-105.24953
-109.80487
-111.03994
-105.68202
-111.11482
-111.12900
-113.83774
-116.61010
-117.13782
-117.59363
-116.66452
-114.19298
-111.83720
-109.72756
-105.93171
-111.55939
-105.49494
-110.81972
-114.09411
-109.75798
-112.46761
-111.17072
-107.96275
-103.31931
-101.38948
-98.02127
-104.31150
-104.67268
-109.79874
-109.35562
-97.25622
-108.28474
-114.52739
-110.34473
-114.09733
-109.84176
-114.42191
-120.66379
-114.14363
-117.03961
-120.54082
-116.57170
-116.94961
-113.24174
-112.16798
-118.59095
-119.55641
-123.21610
-118.11784
-114.16955
-117.47695
-114.05826
-113.60048
-104.48507
-113.80057
-110.40243
-112.90119
-109.60541
-111.92075
-115.90418
-114.81416
-119.99811
-115.87796
-115.94080
-108.14628
-122.63628
-117.76742
-120.88149
-111.20484
-116.83137
-123.28718
-119.31026
-121.50539
-111.71112
-109.39225
-110.93098
-108.47965
-111.72868
-110.50004
-112.16464
-116.73786
-115.84993
-113.35771
-113.82604
-114.86034
-119.55340
-113.42517
-113.26848
-110.75262
-106.73627
-104.26720
-103.58329
-106.23739
-110.63718
-113.18805
-110.70557
-112.75981
-121.34060
-120.19311
-119.06569
-115.55971
-114.39599
-116.20561
-113.62752
-110.21152
-115.14130
-120.56884
-119.53132
-117.69782
-110.67634
-117.31295
-112.01797
-116.77195
-124.29336
-112.26015
-120.30019
-116.92470
-117.95829
-121.51033
-112.31199
-110.08444
-110.88381
-113.68335
-107.84967
-115.17850
-109.20343
-108.02079
-116.68122
-117.89990
-114.89644
-113.17519
-112.48566
-117.67155
-109.08168
-109.95638
-113.43405
-112.76243
-112.70763
-116.01219
-107.72748
-114.16274
-113.87200
-110.95560
-104.85673
-98.46567
-100.41266
-97.11514
-103.67063
-106.75593
-113.22689
-117.10108
-109.70980
-116.11399
-112.26359
-106.02441
-106.81890
-106.76501
-109.90364
-111.52071
-113.16421
-116.59023
-111.95675
-112.46843
-112.46729
-113.13375
-118.00210
-121.59713
-115.73926
-116.79072
-121.62981
-115.40951
-117.53916
-117.57250
-112.17973
-118.88874
-121.91346
-115.79814
-119.34415
-120.26367
-122.45264
-121.90751
-123.92954
-115.36356
-109.19182
-112.07312
-115.28775
-117.60415
-118.49006
-111.18370
-116.48547
-116.63773
-115.20409
-108.96089
-118.29795
-121.01157
-117.57449
-115.87978
-118.74295
-117.42239
-111.70817
-113.53708
-114.32206
-114.05391
-114.05936
-105.74733
-112.74151
-115.70514
-109.28719
-116.73908
-115.39958
-113.11938
-114.45239
-112.24345
-119.33442
-117.51720
-113.09637
-110.68110
-109.12211
-106.85795
-118.50903
-117.60910
-120.23566
-113.31336
-113.23199
-113.36186
-107.79918
-113.68875
-112.21983
-111.27273
-114.05800
-112.85404
-117.34536
-107.67935
-116.59028
-114.59148
-113.04000
-113.10285
-118.43443
-119.66850
-119.03839
-117.22820
-116.30057
-115.12845
-111.46872
-111.92583
-114.51749
-112.59788
-108.16507
-114.05940
-114.73455
-109.81592
-115.85554
-113.37226
-108.88129
-110.15651
-116.38441
-113.34374
-113.14100
-113.77215
-111.47188
-112.65638
-118.96676
-116.47045
-111.87989
-116.03437
-118.09848
-112.94639
-111.08601
-112.36679
-117.61976
-119.24357
-112.06066
-111.14260
-110.53316
-116.63579
-114.71385
-116.03488
-114.60522
-113.29336
-117.22585
-114.64441
-110.82322
-114.48656
-117.94889
-112.31825
-118.82130
-116.41520
-117.64012
-123.19013
-116.78687
-115.48397
-113.01149
-109.22381
-118.87407
-114.42414
-117.77338
-111.70074
-111.60861
-117.36870
-116.99336
-110.02332
-116.76912
-118.46633
-119.13746
-118.02945
-115.68080
-115.54711
-113.01240
-118.26577
-119.26126
-109.74818
-110.83922
-114.38134
-106.32537
-107.78445
-109.00958
-107.16335
-115.29135
-111.14992
-113.96892
-117.38668
-115.50715
-114.32551
-111.42143
-109.70791
-115.70370
-118.23987
-116.68512
-114.05144
-113.58106
-120.30247
-117.87762
-116.06511
-115.36599
-112.72162
-113.11151
-113.45316
-116.85870
-118.23392
-116.95543
-119.92291
-115.99887
-113.63348
-115.09645
-111.73572
-112.65720
-110.09850
-118.59628
-111.27973
-111.92972