-12.13378
-8.91794
-4.16673
-5.51590
-2.23568
-5.05651
-8.49694
-11.20762
-10.53183
-11.95201
-17.21380
-21.99680
-21.40349
-15.44814
-14.73187
-16.60894
-14.81087
-11.82492
-15.56372
-9.21810
-9.76529
-12.20488
-13.54903
-15.18420
-20.31110
-14.10859
-14.24544
-15.42185
-18.82027
-15.02295
-15.47619
-10.25258
-12.44902
-13.20783
-8.54342
-12.94927
-16.72147
-18.21029
-14.65062
-14.25357
-18.47316
-23.27162
-20.06730
-16.75451
-17.46975
-17.18961
-16.51203
-26.75759
-23.23825
-22.91991
-21.84870
-25.82302
-30.25168
-25.19204
-27.34148
-23.52159
-19.81159
-19.10325
-16.79743
-17.61072
-17.82014
-27.65133
-31.31965
-25.63720
-25.35838
-21.15518
-28.08877
-17.01307
-17.31475
-20.83307
-15.97187
-14.71075
-17.52010
-16.85570
-17.84817
-20.16443
-15.62542
-23.66137
-19.56885
-16.49445
-18.32345
-20.32420
-18.81744
-20.96007
-19.41445
-23.65842
-20.52823
-18.79679
-17.09792
-23.01611
-17.13199
-15.02357
-12.92491
-20.84605
-25.01061
-27.08874
-25.98716
-28.14464
-23.27302
-25.74554
-22.32588
-19.21959
-18.26067
-19.61784
-15.35523
-14.56474
-19.01393
-16.16397
-18.84969
-19.04442
-15.12520
-14.46940
-15.89201
-9.89394
-7.28238
-12.79902
-9.52277
-14.49807
-14.39524
-14.91743
-13.67116
-9.53529
-10.10228
-9.99653
-11.52394
-14.37489
-13.89957
-20.03020
-23.72031
-17.15992
-14.41057
-8.42038
-6.62940
-11.08773
-9.61642
-11.82499
-17.92921
-12.57882
-5.96242
-3.39723
-8.99613
-8.87678
-5.77138
-8.37002
-11.84857
-12.59577
-6.48088
-10.01397
-11.71184
-8.27968
-7.45689
-9.81867
-6.20732
-4.35573
-6.87356
-10.93435
-6.63466
-7.60407
-11.29235
-9.57471
-16.89553
-10.54199
-12.53968
-9.11740
-10.38583
-4.89094
-5.67635
-3.60548
-10.87988
-6.20766
-14.82561
-3.83050
-4.64789
-10.43204
-14.96165
-20.07077
-16.25236
-13.70000
-15.39374
-12.48180
-11.48452
-4.44713
-6.21844
-6.33816
-9.88873
-5.73096
-4.43164
-11.44054
-9.15570
-16.08468
-15.02330
-20.07396
-14.48443
-15.06638
-15.06508
-14.01679
-15.81906
-18.22711
-18.37102
-14.27506
-15.77877
-10.76536
-9.08745
-17.31022
-13.98704
-21.73236
-14.82168
-14.85014
-16.95245
-16.51260
-14.54164
-16.28758
-14.23138
-12.98105
-13.02133
-13.64287
-10.76862
-16.60404
-23.77415
-12.91358
-14.64192
-11.40657
-9.45141
-12.29776
-14.14332
-10.34849
-12.62609
-14.08624
-10.89684
-16.44291
-17.00754
-12.88803
-9.81164
-13.00516
-7.62409
-13.33200
-14.03438
-17.39879
-16.05805
-14.38148
-14.68265
-14.37222
-13.78393
-18.92056
-25.42484
-28.47004
-20.50987
-21.22918
-18.23129
-20.20073
-15.29641
-18.66602
-14.81380
-17.44629
-14.51156
-10.86575
-16.06734
-11.15495
-14.00107
-14.22983
-11.60177
-16.31307
-14.33486
-16.46992
-14.72961
-14.83567
-15.75682
-13.19708
-12.49854
-16.73266
-12.46405
-11.48349
-14.29792
-13.27531
-14.06238
-9.72142
-11.63305
-17.91405
-12.99806
-13.47318
-10.41827
-12.99829
-16.47635
-13.48661
-15.46907
-13.94139
-10.93173
-12.15905
-12.97212
-12.37790
-13.82491
-8.93530
-17.00474
-13.61041
-6.93635
-8.55414
-8.76864
-8.97693
-4.23993
-8.51457
-6.06280
-12.02233
-3.12352
-9.16069
-9.61575
-11.24686
-13.57403
-10.24109
-6.51779
-6.50177
-4.76358
-5.93461
-5.65830
-2.68263
-4.03085
-7.22962
-7.49315
-6.32835
-1.82788
-5.40170
-3.02781
-7.35179
-5.78280
4.12967
0.84249
-6.04132
-1.46575
-5.66111
-3.48021
-0.33103
4.06362
-1.66304
-0.43079
-1.64077
-0.08069
-3.83507
0.37159
-7.19819
-4.03002
-3.79883
-3.80369
-6.12915
-8.23167
-8.12684
-3.32107
-2.22337
-4.26318
-6.61549
3.50871
-2.04343
-1.51898
-3.67713
-6.59064
-7.05801
-7.72721
-5.72172
-11.15816
-6.94351
-11.59703
-11.63920
-11.83402
-12.46878
-12.74750
-8.82608
-5.25223
-6.85095
-9.30707
-8.94489
-10.13184
-13.67936
-5.09144
-2.35949
-13.43541
-10.89300
-15.20724
-11.21041
-8.01850
-7.95583
-7.02858
-12.41021
-7.20851
-9.95334
-5.70014
-6.46915
-10.92680
-9.36612
-4.14177
-9.62946
-13.75708
-9.14775
-9.11402
-8.74017
-8.75992
-8.59726
-5.04421
-16.08965
-15.67301
-15.19292
-17.72552
-17.01967
-14.02138
-18.44532
-10.41913
-11.75508
-16.00794
-15.92190
-22.37233
-14.79437
-17.65895
-12.20326
-12.76861
-12.64668
-17.73685
-4.65570
-2.75192
-3.98827
-8.26790
-13.64275
-7.18810
-7.66735
-5.19453
-9.11887
-8.44124
-3.58094
-6.58834
-7.98742
-5.73573
-9.04133
-6.86127
-7.95415
-11.40939
-13.01244
-7.25328
-5.96913
-8.06384
-4.59335
-13.40848
-8.26044
-5.33584
-7.14389
-5.23303
-9.21287
-6.37316
-9.63188
-3.12853
-9.19960
-14.27415
-9.42612
-8.77194
-9.24515
-8.53238
-7.76767
-7.66949
-0.34339
-8.40474
-11.93985
-11.00858
-8.13399
-5.13834
-3.97487
-7.42231
-7.09717
-4.50333
-1.67744
-2.75935
-0.50015
1.37796
-0.02254
-1.79118
-1.67345
-5.42543
-10.32467
-4.47873
-8.89032
-3.10833
-3.69764
-2.75200
2.09073
-6.38837
-1.52056
-7.46050
-3.14999
-9.04847
-3.79173
-2.77683
-10.37356
-11.53316
-5.13606
-5.31663
-4.63189
-5.20712
-6.89455
-7.93251
-13.37393
-18.14919
-15.40103
-13.22876
-16.12491
-17.40353
-9.07296
-11.09101
-6.86865
-11.21351
-9.01825
-6.82028
-9.10547
-7.66112
-8.66097
-12.82444
-12.99420
-9.65938
-4.14097
-7.52525
-14.79848
-12.10305
-21.64363
-13.11885
-14.00360
-10.19710
-15.96129
-16.78006
-17.64518
-17.74103
-12.88140
-5.29152
-2.20083
-0.81498
-4.47731
-8.18050
-10.81575
-6.53114
-13.41673
-10.49008
-5.18218
-8.61315
-12.92067
-16.29674
-10.57084
-11.89309
-15.32757
-17.31896
-12.00689
-14.39824
-19.81834
-19.52578
-11.84596
-13.13445
-12.43183
-19.77887
-19.63927
-18.04754
-11.54148
-10.80042
-15.78867
-14.21172
-11.89653
-13.36461
-13.36782
-12.01676
-9.25999
-8.78067
-3.93654
-4.08285
-5.52839
-7.57091
-6.94951
-8.41581
-4.19619
-13.21627
-12.25000
-11.80790
-5.00401
-5.40821
-6.28025
-11.16929
-5.58242
-4.60657
-7.13997
-2.88032
-0.31893
-7.37482
-6.66253
-3.31203
-4.85236
-5.33129
-6.90371
-8.19056
-6.32998
-8.91882
-7.14443
-13.64268
-10.47596
-17.60830
-18.14994
-16.55227
-15.19382
-12.29148
-11.50440
-4.14108
-6.31928
-9.29282
-11.43260
-8.77107
-8.67753
-11.46246
-15.30342
-13.03676
-16.93514
-20.27892
-23.75664
-27.19915
-21.62365
-27.11521
-29.43909
-27.57163
-28.64994
-29.91450
-24.51756
-29.36854
-26.75542
-28.49058
-24.49407
-24.52160
-24.01332
-23.36657
-24.96960
-27.20267
-21.43178
-25.33685
-18.09171
-9.62504
-16.68839
-23.25356
-23.00204
-16.25390
-10.18748
-14.13442
-14.50438
-11.25415
-11.65972
-8.86295
-16.61944
-17.86327
-12.60059
-12.07568
-15.11517
-13.27303
-11.40420
-17.06463
-18.19447
-11.31112
-18.59735
-17.61356
-14.79579
-17.38538
-15.17404
-19.96631
-19.02838
-16.31567
-15.26937
-22.39361
-14.23919
-21.46976
-13.35181
-14.51310
-17.63068
-16.14508
-12.21984
-11.03119
-8.13623
-12.26766
-14.62962
-11.26348
-5.89456
-6.55947
-16.56051
-10.95918
-9.45758
-5.52512
-19.13003
-21.20007
-24.84501
-24.18976
-17.44164
-27.66409
-25.54314
-27.32910
-26.59783
-26.44321
-33.20529
-33.93169
-24.64148
-18.83183
-20.96215
-21.18746
-23.50848
-23.40916
-14.50204
-18.89305
-20.21618
-22.38844
-17.14293
-21.86884
-10.56119
-10.96003
-12.96578
-12.12270
-17.76210
-18.79584
-19.45324
-17.41489
-14.58602
-8.74713
-18.82325
-17.64729
-15.43401
-19.78940
-17.89244
-25.30338
-20.82458
-15.20561
-16.93616
-22.88676
-23.96760
-17.80635
-17.46507
-14.47334
-16.69807
-25.39661
-31.82438
-32.72977
-30.62629
-27.15063
-26.07689
-18.31233
-18.65739
-14.32854
-13.72785
-15.26224
-17.91735
-14.50149
-14.82426
-15.27166
-9.98636
-11.35742
-12.89601
-15.74539
-15.41019
-15.17198
-11.85654
-16.45116
-9.33096
-12.28867
-19.16391
-19.41747
-18.01689
-16.06788
-12.51231
-17.02437
-24.94022
-21.98841
-26.62951
-30.06327
-16.11918
-17.94600
-17.30186
-14.73167
-12.68770
-12.41709
-13.45910
-18.91875
-16.96165
-10.27554
-8.12370
-6.57699
-11.62292
-12.34813
-9.34521
-9.79160
-6.51681
-7.42668
-8.78041
-11.42249
-5.63723
-6.40795
-11.64225
-9.46645
-6.08478
-9.54630
-9.09296
-8.77186
-8.49871
-11.37840
-2.27125
-1.49106
-9.91654
-9.68243
-6.34401
-5.35534
-5.22099
-6.90337
-4.88852
-3.39695
-4.00126
-8.24109
-10.21267
-4.34308
-5.27357
-8.91868
-9.59639
-5.42366
-9.24037
-6.00910
-6.55044
-6.53246
-11.49984
-12.52067
-8.62900
-7.12328
-10.95636
-7.82282
-4.26725
-7.28488
-8.11014
-2.98686
-4.85222
-7.11196
-6.32363
-10.50495
-4.36276
-14.25400
-7.94014
-4.73343
-6.91744
-9.79320
-9.24260
-11.10527
-11.89815
-6.43707
-0.41567
-8.54366
-8.61265
-5.89636
-8.01478
-13.24749
-14.04714
-8.65233
-8.53047
-4.52722
-1.37650
-4.09665
-8.03884
-6.20997
-9.84916
-4.51831
-4.17335
-4.20547
-3.63870
-4.80676
-8.97065
-6.78481
-12.87074
-8.81428
-11.85708
-11.10279
-14.04870
-9.42214
-13.56491
-16.31717
-14.83797
-21.37703
-14.48464
-12.70392
-15.52668
-15.27273
-10.52099
-5.87835
-7.84338
-9.61537
-16.57205
-21.13424
-15.45255
-17.34141
-16.04655
-9.04598
-12.73631
-14.50695
-17.95248
-17.20885
-18.12660
-15.61278
-21.96016
-21.11701
-24.34658
-26.74095
-26.61247
-27.13569
-18.08452
-14.40638
-18.56291
-13.97327
-14.05357
-14.68793
-18.81588
-16.22781
-14.57162
-14.78765
-18.27369
-16.50724
-21.45404
-26.42876
-20.63739
-15.54115
-15.89653
-18.42306
-16.34559
-21.86225
-19.54274
-20.14418
-20.07299
-17.33051
-16.36108
-14.83734
-19.36540
-11.29725
-17.50895
-16.39094
-18.93550
-19.15209
-16.41259
-16.43346
-16.91276
-12.99194
-13.82319
-16.54430
-15.67646
-15.99757
-19.00909
-16.95967
-16.17016
-16.62025
-14.96846
-14.95481
-9.33690
-13.62904
-19.27438
-19.99797
-15.79148
-12.14333
-12.78099
-12.06890
-15.11801
-21.62028
-13.27109
-15.48779
-23.64506
-18.44387
-15.54645
-26.89621
-23.35041
-18.29824
-20.53347
-27.08019
-27.95118
-22.40231
-22.81967
-12.18621
-16.70924
-13.27768
-14.48891
-14.48609
-14.60040
-8.98313
-11.38076
-10.32720
-16.28472
-16.58064
-12.03949
-13.22550
-14.98569
-13.54102
-6.00286
-7.03660
-8.70955
-14.89345
-17.07732
-23.97559
-17.62569
-18.45131
-23.74329
-17.09300
-16.72111
-17.95121
-16.57695
-16.33660
-15.42115
-16.24311
-16.55499
-19.75651
-19.17601
-20.18864
-15.04703
-10.63398
-13.56214
-10.20715
-10.59411
-10.84626
-18.26396
-17.71880
-20.97305
-26.21536
-21.38538
-24.24917
-19.07973
-18.17800
-19.55990
-11.90226
-8.22776
-8.12535
-8.65648
-12.98460
-4.84410
1.64050
4.24083
-5.56362
-7.29353
-11.75782
-12.08445
-12.46984
-12.21009
-11.75523
-10.78928
-4.71715
-11.04567
-8.32117
-8.99487
-11.67184
-11.68270
-3.41621
-4.39830
-4.52394
-8.26513
0.62225
-1.51770
-2.96361
-0.73245
-5.33727
-6.49125
-3.17516
0.64627
3.51580
-4.85790
-6.42797
-5.15295
-1.46591
-6.99123
-7.14954
-2.84927
-4.27143
-3.43436
-6.49339
-6.14245
-5.51957
-6.29760
-5.64035
-7.56944
-5.85735
-9.12775
-9.73616
-4.37742
-3.17670
-3.13641
-2.24872
-6.72622
-6.81880
-0.89387
-2.90434
-6.26084
-3.77295
-6.68010
-5.74834
-9.83450
-11.05983
-14.08347
-7.07205
-9.77462
-6.07066
-6.16109
-10.39464
-12.67539
-15.88074
-10.68082
-12.48023
-11.39783
-15.25787
-17.26972
-12.29606
-7.33101
-18.74405
-15.29129
-14.44063
-17.85071
-20.99891
-23.85423
-21.90390
-25.66766
-19.79662
-16.22085
-13.27004
-12.99614
-10.26929
-4.33959
-10.34395
-13.32571
-12.42020
-17.66982
-17.46396
-15.90455
-19.98560
-18.57375
-11.63500
-13.09081
-15.79036
-16.29365
-17.91596
-15.32026
-21.46109
-15.34692
-19.68319
-13.96770
-17.66501
-15.75075
-16.50386
-16.04415
-6.61140
-12.69449
-9.36863
-11.94737
-7.90988
-8.18122
-2.49870
-3.70738
-8.39803
-9.91506
-12.80595
-16.83084
-8.14617
-7.17416
-14.40783
-6.45724
-5.63739
-14.44728
-15.55388
-13.83586
-4.89283
-13.00005
-15.42304
-19.25284
-20.00730
-12.72420
-9.66614
-12.05969
-15.51772
-11.43191
-5.16599
-8.58656
-9.35070
-11.87989
-13.30611
-16.60906
-21.03446
-19.76742
-8.51398
-1.08739
-3.18569
-11.99657
-11.66677
-10.33715
-9.47218
-4.37902
-4.93193
-8.16022
-6.19253
-9.70061
-3.37422
-4.68152
-10.76034
-9.88335
-7.80492
-11.97060
-9.39404
-7.04484
-9.42350
-7.64319
-7.19201
-6.65823
-13.34443
-13.94721
-10.72146
-0.15314
-3.93902
-8.32282
-5.06539
-6.48829
-10.89422
-6.38838
-2.56308
-5.27295
-4.20623
0.70147
1.51979
-3.79078
-3.57817
-1.44475
-3.70474
-6.50557
-7.32122
-10.83874
-4.10636
-10.99307
-4.12377
-1.10527
-2.12955
-8.61407
-7.54807
-9.63853
-9.98861
-4.79227
-6.80784
-8.72305
-8.25728
-3.93487
-4.74639
-1.70093
-0.81503
-4.45805
5.96045
1.16416
-2.34080
-6.04926
-8.87279
-6.85543
-2.42523
-9.21962
-14.85418
-14.87621
-13.36873
-8.63534
-12.48046
-14.09009
-15.53026
-12.63288
-8.27755
-11.41533
-6.62237
-7.74409
-1.26456
-5.51027
-4.24163
-6.90736
-10.39136
-10.53532
-9.44539
-9.34457
-11.30535
-13.07682
-9.36622
-14.78386
-16.15057
-9.60500
-17.33785
-14.48486
-15.86265
-16.34289
-18.15406
-13.67806
-20.49787
-16.03963
-13.20326
-11.17664
-11.45578
-13.48422
-15.52609
-11.55063
-6.84807
-11.87276
-12.60854
-16.08711
-9.66729
-5.11660
-12.55320
-13.50058
-5.24830
-13.33220
-14.83671
-14.17017
-13.63707
-9.12202
-14.97881
-13.89367
-11.16979
-12.04655
-10.29844
-10.90313
-10.89291
-11.48699
-16.33758
-18.40525
-18.76941
-22.47831
-16.27792
-12.29850
-11.24680
-5.81322
-4.63731
-12.44824
-12.97066
-12.37190
-12.23951
-3.97543
-1.67999
-2.45491
-3.92190
-5.84036
-0.85246
-13.46943
-13.35873
-14.62768
-11.91351
-12.18385
-14.35570
-24.80375
-25.20959
-28.28959
-20.34076
-17.60070
-10.38616
-17.86065
-21.85547
-9.77525
-9.02631
-14.66634
-16.65471
-17.20665
-26.78217
-25.72654
-24.70233
-14.57952
-20.57829
-14.90933
-9.72047
-16.63277
-18.23622
-23.56787
-25.76241
-21.05776
-21.20804
-9.09240
-4.53520
-11.95586
-9.53135
-14.11101
-6.12424
0.71175
-1.19325
-4.73630
-6.45744
-2.14195
-1.40217
-5.27026
-2.57128
-2.93897
-2.67477
-2.95197
-1.79558
-0.69345
-5.95442
-9.37601
-9.68818
-1.03490
-8.31392
-2.47903
-8.38376
-0.60766
-7.59300
-6.47845
-9.80270
-10.36435
-7.17156
2.91705
-3.99765
-4.66032
-9.70468
-7.77633
-6.38866
-5.99645
0.48032
-7.21059
-9.22234
-5.69044
-5.46682
-4.04332
-4.97715
-0.45150
-4.63531
-4.55443
-0.40180
-3.38161
-9.63733
-4.87550
-5.34628
-4.45021
-1.14466
-3.28620
-4.55630
-3.81919
-4.09606
-9.33307
-0.79338
-8.51972
-4.92579
-4.82248
0.05255
2.83382
-2.68964
-11.66503
-17.50539
-12.42871
-11.17375
-13.80581
-11.80177
-10.45607
-12.54040
-13.85069
-8.71201
-10.63745
-4.51513
-4.95230
-9.25434
-6.19619
-8.95417
-4.86419
-7.63662
-8.23781
-8.92485
-6.58013
-4.13060
-5.27329
-8.93649
-8.87861
-3.22294
-4.00316
-1.83127
-2.48277
-4.81188
-3.50147
-3.31059
2.56265
4.32886
-3.37281
-2.32024
-1.53275
-2.55213
-4.46488
-5.27573
-6.03981
-6.89947
-3.45057
-3.82412
-5.17865
-11.64343
-9.85698
-4.13199
-8.09069
-8.84200
-10.01030
-6.32672
-6.20845
-3.15033
-5.07900
-6.12511
-2.26357
-4.95488
-3.47130
-9.13714
-11.84283
-11.58887
-7.82240
-8.43015
-12.32513
-8.22783
-5.91776
-5.99030
-2.13351
-9.12397
-11.44752
-4.67792
-7.94891
-5.67253
-13.49095
-13.75037
-13.25641
-13.09073
-7.61859
-9.20531
-7.11301
-10.85731
-11.64362
-8.75200
-11.84274
-12.38340
-14.16296
-12.26249
-14.67096
-13.11093
-16.69194
-19.86265
-16.44199
-11.34803
-8.38302
-12.53888
-9.73564
-11.23588
-14.87170
-15.76737
-8.55804
-11.05640
-11.96878
-14.86056
-11.89240
-16.15053
-22.31988
-15.78199
-10.94582
-9.91866
-10.02797
-9.67664
-12.06464
-14.73653
-15.82369
-21.69565
-14.52660
-15.04828
-8.12010
-14.66419
-11.82652
-14.00012
-13.32198
-17.52953
-16.91303
-19.30281
-20.11023
-18.65280
-16.13629
-19.76054
-14.87805
-11.95293
-13.82712
-12.65909
-17.69445
-17.57060
-22.03889
-21.58700
-16.26453
-15.72816
-20.52795
-17.88332
-16.99205
-12.44950
-13.48614
-16.48024
-14.26134
-15.69381
-20.96357
-14.61404
-19.55449
-28.70048
-25.24624
-26.49214
-32.87098
-27.12054
-25.45019
-23.08718
-25.90199
-24.12855
-20.73293
-24.82610
-25.25985
-27.12817
-28.45846
-25.27841
-26.28783
-22.24144
-27.03977
-24.52087
-20.19052
-20.31199
-24.70386
-25.07712
-25.63791
-22.91162
-25.20878
-27.71317
-17.41210
-15.58157
-12.33602
-13.09090
-12.94332
-13.02060
-5.45160
-9.40549
-11.69750
-16.55238
-14.36852
-11.12237
-6.08022
-5.36442
-13.43595
-13.54977
-10.32990
-15.72100
-11.98661
-9.23295
-5.63870
-1.69134
-3.51678
-10.61870
-13.49451
-12.47475
-10.71423
-11.45656
-8.71894
-13.20023
-3.68925
-0.76280
-4.42371
1.41171
-2.87871
-9.00083
-11.72595
-11.03072
-5.14097
-6.49405
-8.27558
-5.36302
-2.29036
-7.06180
-13.42884
-11.90330
-8.02224
-12.09962
-9.25801
-10.90954
-12.88826
-4.32588
-2.78542
-7.03978
-3.21654
-3.31287
-7.95274
-6.76459
-9.00869
-11.65316
-6.73414
-6.83558
-4.04390
-4.67110
-0.92727
-10.25958
-14.76177
-10.13864
-0.91600
-4.96767
-7.53707
-10.23352
-9.16356
-4.24079
-0.49741
-6.38349
-4.22307
-2.69628
-8.76418
-3.05525
-1.23524
-0.85350
-3.50924
-12.79571
-9.81056
-14.09655
-7.96176
-15.06638
-11.49186
-18.89148
-21.45994
-18.92084
-15.53161
-16.82985
-15.11328
-15.08583
-5.36844
-9.67676
-6.35392
-5.18484
-12.18600
-11.92354
-15.88654
-14.17044
-11.03273
-5.31320
-4.90094
-8.03623
-11.50347
-9.08453
-12.09859
-13.92379
-5.32786
-9.60861
-10.10140
-9.71429
-10.69825
-7.85966
-5.20850
-4.84440
-5.78826
4.51415
-1.15652
-2.92683
-9.86643
-6.65947
-5.99433
-14.93659
-3.80912
-5.81742
-6.23783
-5.70656
-8.33251
-6.75785
-5.40612
-0.78142
-2.73073
-6.77934
-9.01161
-2.58538
-6.37681
-5.21384
-8.87612
-3.29665
-7.13755
-8.50849
-5.68973
0.27044
-7.82370
-9.22396
-9.96479
1.48411
-2.63232
-2.46983
-7.54756
-9.23862
-13.14342
-11.68265
-7.96939
-9.42906
-14.83146
-13.53328
-13.63626
-12.27119
-12.08211
-13.35856
-18.49948
-15.97438
-13.00606
-17.21825
-11.20599
-18.57832
-14.56204
-18.38120
-14.34482
-11.54448
-17.59577
-14.69892
-19.35387
-21.50220
-9.40870
-7.34521
-7.87433
-12.18738
-12.16354
-15.47784
-19.56373
-14.23674
-12.65436
-14.66438
-15.33894
-16.12942
-13.10916
-14.28128
-8.62241
-14.37078
-18.15742
-18.93843
-18.61739
-17.54135
-20.81050
-22.28490
-20.79466
-16.04565
-15.96048
-24.11861
-20.27434
-24.29137
-30.73850
-35.77544
-31.98289
-35.38226
-37.42075
-41.42170
-38.20030
-32.67874
-25.37629
-32.67719
-26.74288
-32.85403
-33.12784
-30.45792
-41.80037
-42.27465
-38.49330
-39.33988
-35.16185
-33.31177
-32.26554
-38.01829
-39.67427
-32.89734
-30.00423
-35.12405
-31.01445
-27.37515
-31.75883
-40.46559
-39.85401
-40.20861
-41.28334
-38.38776
-43.44724
-41.35805
-36.99132
-33.20496
-24.51150
-31.95464
-35.81496
-38.36324
-38.44882
-39.44234
-35.66392
-31.73091
-34.97254
-34.71392
-37.51161
-34.55088
-38.05155
-42.33641
-52.62014
-46.77797
-46.51333
-42.10277
-45.62992
-50.24718
-50.69852
-43.44504
-34.30061
-38.71503
-42.50616
-40.66655
-43.33810
-39.63581
-33.82532
-35.28322
-45.30329
-41.91682
-31.70291
-29.79066
-37.07020
-35.02158
-27.54425
-37.38617
-33.92771
-31.60548
-38.40946
-28.85395
-29.36486
-19.45351
-22.49902
-23.27572
-23.81805
-18.72825
-22.01575
-26.32801
-26.70117
-25.30790
-23.38619
-29.33796
-33.46004
-32.78155
-34.85381
-34.85131
-34.41173
-33.34545
-32.85790
-31.24554
-37.60310
-26.59062
-29.96314
-23.90196
-27.25308
-22.31350
-19.33729
-16.20666
-19.59600
-15.46164
-9.82955
-11.33765
-13.54544
-14.67632
-14.89641
-11.07786
-10.83429
-11.45703
-16.91671
-16.91270
-18.67384
-12.71568
-11.32806
-7.10463
-7.86835
-10.08675
-12.22062
-13.83768
-17.83201
-16.28398
-20.91065
-14.35622
-15.23608
-15.19008
-20.79239
-19.66215
-12.38970
-12.25059
-17.53475
-15.71767
-11.95479
-10.86149
-8.39615
-8.40943
-10.44296
-10.60506
-14.56411
-11.81278
-14.36753
-10.52479
-3.95059
-8.18819
-5.11369
-9.19938
-10.39633
-5.52205
-10.26810
-11.98104
-8.35339
-5.50721
-6.44278
-4.38680
-8.63453
-7.21244
-8.43350
-12.76028
-13.05517
-9.85761
-11.34884
-10.09016
-14.40874
-11.21780
-10.55574
-11.67565
-8.09324
-11.73126
-7.90236
-12.23232
-7.96148
-5.65364
-2.79800
-3.52488
-8.11345
-7.34953
-13.21727
-9.60625
-5.40126
-6.27891
-11.21897
-6.14866
-6.62761
-11.52267
-11.37374
-8.22580
-4.75063
-5.26813
-8.44808
-1.94519
-2.10175
-7.32214
-1.41255
6.83484
-6.27817
-14.24721
-6.95695
-2.27363
-2.03720
-8.56961
-9.87201
-13.72058
-16.90569
-18.76349
-16.70315
-10.37846
-12.28834
-6.11943
-7.71954
-15.06744
-12.04539
-15.38365
-8.60465
-4.75570
0.05225
-13.44486
-10.81307
-9.84826
-7.71313
-8.03378
-9.92250
-8.37862
-7.22483
-10.28854
-11.43723
-17.47001
-9.96808
-10.99812
-12.47157
-13.17228
0.73869
-5.61048
-6.96783
-8.46263
-1.78562
-3.59000
-3.14463
-5.47447
-13.03075
-17.73073
-17.90572
-12.15533
-12.63260
-8.74987
-13.65606
-13.65043
-17.64716
-18.10146
-15.48237
-14.31932
-15.92458
-17.19878
-20.00500
-21.17683
-19.15230
-15.35531
-9.07879
-18.91886
-18.17871
-22.77630
-21.90213
-18.36124
-14.14126
-16.79413
-13.05993
-18.58344
-16.70339
-16.81542
-17.35192
-19.86332
-31.90346
-33.16958
-36.60155
-34.82661
-30.81178
-31.87215
-34.87950
-26.41726
-32.85714
-29.88582
-25.35962
-22.48210
-34.83127
-35.37499
-34.22928
-27.30827
-24.71049
-19.67346
-18.12239
-19.85150
-21.95417
-20.24672
-18.67865
-20.66285
-19.00226
-22.16156
-20.21890
-18.57081
-24.34721
-17.12107
-19.02712
-13.85876
-15.82576
-22.17089
-20.25464
-22.06734
-24.66454
-18.05599
-21.54847
-17.31919
-17.08158
-17.94123
-20.66702
-20.65390
-17.83296
-19.49007
-22.83209
-20.02776
-16.04981
-19.36878
-16.59513
-20.24624
-27.43151
-24.22368
-17.15742
-19.49749
-17.51239
-14.67466
-17.70888
-18.86290
-19.93973
-22.22155
-28.77452
-21.24612
-18.66536
-14.82344
-25.57575
-26.75972
-18.86797
-17.89451
-17.92573
-17.20543
-26.76752
-23.57941
-24.26667
-30.78407
-31.40949
-26.01395
-24.53407
-21.45067
-18.71948
-20.27677
-17.00511
-15.58352
-15.06422
-22.10725
-24.58063
-21.08602
-13.67245
-19.30050
-22.92604
-14.70348
-10.42176
-13.93828
-14.22325
-19.84315
-22.01712
-21.47340
-7.68329
-11.01010
-7.11317
-12.31897
-15.22312
-10.04495
-12.89881
-13.47982
-7.45618
-14.82358
-13.56336
-14.36272
-10.91207
-10.37663
-14.00790
-18.57408
-15.55139
-16.89864
-21.81424
-21.31908
-23.56115
-29.62873
-31.19712
-24.28357
-27.95688
-28.56770
-29.58580
-23.33639
-22.06877
-28.49473
-26.78894
-15.69606
-12.21114
-12.74151
-21.33591
-18.45687
-21.85944
-17.19969
-19.76512
-18.55843
-17.00314
-17.66431
-21.67353
-25.83263
-18.73734
-18.77786
-20.53498
-20.34821
-17.91519
-18.45089
-15.70746
-19.28216
-15.98791
-23.18850
-18.10343
-12.82611
-9.75059
-17.32386
-15.97996
-9.32399
-5.08124
-17.96857
-11.95581
-12.39587
-21.26699
-27.14023
-21.85876
-19.81002
-18.11184
-18.64119
-17.49793
-17.77233
-18.90706
-18.50740
-14.23079
-22.68981
-19.09457
-17.93791
-19.81374
-24.12360
-16.98968
-25.78307
-26.71277
-22.21925
-27.73355
-23.63265
-26.19486
-18.85615
-20.69031
-21.49649
-17.76129
-23.12938
-10.23985
-18.62037
-15.36976
-15.96027
-16.58344
-17.96792
-17.47036
-18.08640
-16.89219
-21.08100
-14.15879
-11.70463
-9.83125
-10.23348
-7.80325
-9.77699
-9.02681
-11.57511
-12.29419
-17.14150
-20.19054
-12.63196
-16.83739
-18.79831
-14.59092
-16.96862
-11.98478
-7.77183
-10.85021
-9.39945
-9.98189
-2.41605
-12.81419
-13.40129
-7.21136
-2.97288
-12.38191
-1.15774
-10.99694
-1.48473
-0.64293
-4.45899
-3.85214
-5.63946
2.22010
-2.85016
-4.20345
-9.80321
-7.77685
-9.84407
-7.66122
-5.07943
-2.09019
-9.25504
-7.23209
-6.96984
-4.10236
-1.66692
-9.01032
-6.00785
-8.48919
5.21386
-6.27994
-2.25617
2.26054
-4.88705
-3.09591
-7.48396
-5.02916
-6.25538
-8.33871
-4.32405
-4.12984
-3.97364
-6.01910
-4.49613
-5.44369
-7.13687
-4.17348
-4.43174
-5.38582
-4.27383
-10.37365
-8.05227
-5.65765
-10.16398
-18.10792
-11.61882
-9.76466
-10.33455
-1.78448
-10.59289
-10.69224
-10.61561
-5.67704
-10.12795
-10.28904
-10.62553
-5.35193
-6.03872
-9.95526
-5.13120
-8.73326
-8.20560
-6.18761
-9.63323
-5.25925
-11.04132
-10.89519
-9.63896
-9.17780
-13.24413
-14.19068
-7.05572
-8.56074
-11.05252
-12.31347
-11.20190
-11.27516
-13.74580
-10.07537
4.01008
-2.96127
-10.53976
-5.58113
-8.13666
-8.28578
-14.18758
-15.43380
-14.37942
-19.42262
-13.45195
-5.71307
-5.44689
-4.56158
-3.36267
-5.39558
-5.64720
-15.17369
-17.70619
-16.18331
-18.80589
-20.79582
-11.55659
-18.92657
-20.78434
-23.93378
-21.08358
-17.26478
-12.58840
-23.64453
-25.65761
-12.75090
-14.56754
-10.97389
-12.60870
-8.89117
-8.53931
-12.16313
-12.47643
-9.62990
-16.55027
-28.58279
-20.24254
-11.85874
-12.42099
-11.08415
-7.28232
-11.93614
-15.13752
-12.62026
-12.91140
-15.65526
-14.72930
-15.34945
-20.25872
-19.66761
-19.37748
-26.11334
-16.39141
-16.20894
-20.48419
-16.89670
-12.23444
-16.60133
-22.44007
-28.46033
-22.36263
-20.07424
-12.91400
-15.90330
-16.06973
-23.49340
-21.13003
-27.48815
-22.86601
-26.91438
-20.11100
-21.94698
-18.31356
-16.93659
-25.16262
-25.91635
-23.07889
-15.44336
-18.39998
-13.24511
-14.23487
-18.51376
-16.68947
-10.25378
-11.21559
-6.49549
-13.48864
-19.16465
-24.40572
-20.89614
-15.32236
-19.94908
-19.39630
-20.77740
-10.41939
-7.78875
-10.55458
-7.48528
-10.08105
-5.93870
-6.55713
-10.20053
-9.21691
-10.14321
-14.69610
-6.65985
-5.06303
-3.03597
-10.46839
-12.32178
-12.52733
-14.30724
-10.52940
-9.36533
-8.67314
-14.75436
-5.04539
-0.95683
-5.75226
-7.74787
-1.87885
-4.04894
-8.97156
-7.50503
-6.65598
-3.60237
-5.67243
-8.23127
-7.20488
-9.74541
-5.55880
-1.54959
-11.14799
-10.95458
3.29453
3.14119
-3.98040
-4.29199
0.93366
-1.29664
-10.70553
-6.86410
-5.93494
-3.05627
-7.07927
-1.60362
-5.79421
0.43172
-6.64703
-4.52587
-4.64391
-8.93650
-3.86794
-1.11573
-2.10068
-2.39652
-1.25530
-3.34537
-7.82479
0.31153
-2.64057
-6.34001
-13.68896
-3.06329
-6.01179
-9.85359
-18.07090
-12.70703
-12.63204
-10.89175
-11.68698
-14.69680
-9.19905
-10.68353
-6.94011
-4.69796
-9.53600
-13.75326
-9.07056
-14.80501
-20.53041
-14.35593
-8.36083
-12.59391
-17.24412
-11.03638
-14.45815
-14.78558
-11.37404
-9.11733
-14.79797
-14.79559
-12.09150
-10.34283
-8.68424
-12.13857
-13.56334
-12.79916
-14.10739
-17.69646
-13.48487
-9.48902
-10.95082
-7.97246
-13.36149
-8.74736
-14.78420
-9.12905
-16.66863
-15.53746
-7.94396
-10.60389
-19.54199
-16.60854
-16.20751
-21.55779
-24.86407
-19.34719
-11.81860
-16.07916
-9.52945
-14.36362
-14.96535
-19.63854
-24.38860
-20.47016
-17.16551
-16.12163
-14.27013
-14.70675
-20.89141
-29.23457
-27.45918
-22.31132
-15.62148
-12.52852
-17.46029
-18.67186
-12.09667
-13.81985
-16.37622
-20.56713
-19.68327
-18.01532
-23.29734
-15.28833
-14.09606
-14.36748
-16.52258
-14.34424
-14.49563
-9.91839
-11.26679
-14.84024
-17.82414
-27.16808
-26.40295
-27.01220
-22.20529
-15.69938
-17.56045
-11.64099
-6.80216
-12.57299
-18.13654
-14.44465
-16.89760
-22.00300
-22.66681
-20.21752
-20.85073
-22.31708
-27.42905
-29.75536
-28.35371
-23.88020
-28.65660
-28.35942
-25.92825
-27.72671
-28.33174
-26.65873
-26.01916
-29.90580
-28.74999
-28.86366
-31.45156
-29.75125
-23.58739
-22.46796
-18.46826
-26.55715
-25.28464
-20.01042
-12.00624
-18.40070
-19.47349
-9.40545
-18.93290
-19.60533
-21.62874
-23.55437
-22.19580
-24.14271
-13.00966
-23.96231
-23.75529
-19.42165
-24.23515
-20.01089
-15.86391
-14.39716
-12.64906
-14.18537
-13.64875
-17.17627
-4.85997
-10.75744
-15.24602
-18.88121
-16.87186
-12.42400
-4.23549
-8.39727
-7.53247
-11.82701
-12.73897
-9.26089
-14.76323
-13.53178
-10.18524
-9.34241
-16.49062
-13.96459
-8.52750
-10.51004
-9.69495
-5.49836
-5.56497
-5.29262
-9.05202
-6.50510
-9.59490
-14.09555
-17.20138
-13.93053
-10.97051
-15.49799
-13.65736
-12.77686
-10.81495
-10.79344
-8.68402
-5.25033
-6.69934
-3.81015
1.05385
-13.81600
-7.31790
-0.51440
-0.54764
0.44552
-0.58675
-5.82364
-1.78216
0.67867
-6.10486
-8.00950
-9.32071
-7.60876
-9.20103
-2.98270
0.69574
-2.60555
-3.23197
-2.36119
-2.63556
-2.91670
-7.97967
-3.79616
1.94854
1.30512
-5.81115
-8.89749
-6.34846
-3.08232
-4.32746
2.00410
1.55886
-4.47491
-6.53665
-1.91220
-6.04819
-9.51449
-9.49797
-9.93747
-12.29403
-11.82957
-9.29432
-11.82669
-11.19701
-6.24006
-10.38522
-11.76082
-19.59118
-15.51168
-10.55961
-10.89503
-13.84035
-17.81025
-13.20793
-15.71280
-14.53031
-12.54125
-16.35204
-11.06530
-10.12786
-13.06887
-12.15574
-11.19236
-21.18044
-23.80040
-15.69324
-18.12490
-17.91853
-30.05055
-29.96705
-32.10309
-23.16587
-21.29984
-27.97505
-28.92796
-24.26789
-16.03353
-18.57915
-19.01981
-18.12962
-20.73260
-20.55096
-20.48497
-21.20288
-17.45637
-19.46317
-20.96273
-23.14536
-21.17836
-17.52080
-16.65334
-21.64678
-12.51684
-9.15470
-10.51248
-11.41096
-7.69552
-14.15313
-20.01559
-14.30522
-15.26927
-15.97023
-14.45409
-17.82974
-15.54255
-11.39784
-11.95523
-13.35210
-13.01370
-11.44582
-4.20566
-12.24211
-10.34344
-8.40429
-11.35627
-10.83464
-9.89369
-10.52584
-10.76673
-9.48763
-10.88093
-9.09010
-10.09066
-11.67495
-14.48825
-16.86233
-15.91978
-12.17711
-6.57147
-5.60592
-13.00492
-13.36701
-15.88943
-12.01771
-13.59588
-16.25421
-13.64147
-13.83405
-14.61265
-10.10104
-8.08759
-8.91208
-14.09446
-12.50000
-10.39192
-9.53269
-10.68357
-7.65132
-7.09051
-8.59090
-15.05717
-10.19098
-8.86747
-3.97695
-3.83813
-5.03452
-4.54570
-9.20100
-9.97543
-6.58079
-4.14429
-8.21385
-5.18125
-7.33815
-7.82635
-5.77623
-1.60725
-4.07623
-8.72087
-8.24156
-9.02772
-2.41615
-3.51960
-2.01211
1.48570
4.64102
3.86317
-4.27363
-2.91804
2.10905
1.01995
-3.10498
0.41590
-8.48798
0.28937
-5.13528
-6.55918
1.65882
-0.43048
3.64071
-0.18780
-1.90307
-1.86535
-4.96316
-0.04476
-3.24797
-2.40829
-7.20964
-8.70352
-11.98824
-15.06275
-8.55158
-8.57649
-14.79684
-7.31643
-11.73789
-11.76685
-10.96151
-5.61331
-8.33671
-8.41508
-2.14915
-0.32592
-3.39962
-12.60331
-12.67164
-8.42489
-8.00249
-9.46921
-14.97655
-12.63961
-13.05036
-16.17822
-7.13858
-3.12872
-6.00373
-8.52687
-11.49442
-7.52051
-3.15794
-5.72883
-5.98020
-10.28582
-12.08624
-13.61828
-11.32630
-5.02359
-6.51275
-5.41452
-7.72070
-8.71615
-9.32000
-7.79783
-7.31020
-5.53248
-14.15739
-9.54336
-13.05188
-16.33338
-6.93884
-9.19114
-12.10002
-8.06441
-10.84956
-11.17109
-10.14622
-7.11950
-6.63867
-4.52281
-4.52062
-10.59345
-15.20220
-1.00763
-1.79742
-5.40665
-11.16397
-2.81636
-2.75499
1.43614
-4.96908
-3.63546
-4.07186
-2.75432
-5.57816
-9.63974
-14.93121
-8.65585
-9.09585
-8.06008
-9.40033
-12.01681
-11.87000
-11.39942
-11.00043
-12.95004
-8.62464
-11.58878
-11.78275
-7.05801
-0.33027
-12.27571
-11.21387
-12.67603
-12.87017
-9.65727
-15.96477
-13.45040
-8.91690
-11.11556
-3.54500
-6.44069
-15.71210
-7.09417
-6.77823
-7.25013
-5.19937
-2.16893
-9.17430
-8.35898
-7.04391
-15.20714
-14.04023
-14.82115
-10.53017
-8.90476
-15.72251
-17.25732
-14.28606
-16.60358
-24.58131
-20.70598
-11.10900
-9.62040
-19.50016
-13.49071
-16.04187
-20.05221
-21.48856
-24.82871
-17.79426
-25.75552
-20.66632
-20.88925
-29.14351
-24.35530
-18.82024
-17.38491
-16.30646
-20.74470
-19.74561
-25.24435
-13.86008
-20.33344
-20.16790
-16.40773
-15.66464
-13.20980
-15.64999
-16.45262
-24.64221
-18.94436
-16.85323
-12.53241
-15.11765
-18.77366
-20.60215
-23.51948
-21.91092
-18.28530
-17.56448