-4.02150
-6.46048
-4.66671
-6.42526
-5.48282
-6.88745
-7.82178
-7.14238
-5.09194
-12.64100
-4.52723
-4.81992
-1.35835
-5.50982
-4.09550
-3.26722
-10.92467
-11.60137
-12.15440
-13.09866
-16.98108
-12.79925
-10.56634
-15.55134
-0.50619
-7.39947
-7.92241
-8.95344
-7.40688
-4.60445
-11.09833
-6.98935
-5.23163
-8.34914
-8.02577
-4.55477
-13.67830
-10.40709
-10.09110
-11.29556
-8.77964
-14.77011
-7.75406
-11.17887
-20.34225
-22.75252
-20.22921
-11.48832
-12.36814
-17.49614
-8.54310
-8.07678
-10.91912
-5.41003
-7.96454
-7.02842
-11.52359
-8.53836
-11.18090
-8.64751
-11.58403
-7.03174
-14.58454
-12.99834
-15.24237
-13.99033
-18.89738
-18.85866
-24.58234
-23.03166
-20.96021
-15.64674
-9.47541
-13.83269
-11.28075
-11.25090
-13.74543
-18.85179
-12.46188
-7.51600
-14.96273
-24.41517
-21.90166
-26.54624
-19.04650
-21.18053
-21.46500
-17.45634
-15.17510
-22.51334
-19.69830
-24.50422
-15.15635
-25.37437
-12.51760
-12.56739
-12.13861
-16.45024
-19.07814
-19.86498
-25.81053
-22.99432
-28.79014
-27.94071
-27.72018
-21.40302
-19.46077
-20.72885
-20.80469
-22.71489
-17.86556
-16.57516
-20.99805
-16.24023
-14.38734
-14.71834
-8.01081
-9.80067
-10.13638
-7.53567
-6.80396
-13.79131
-16.04071
-12.70280
-13.80492
-22.56129
-20.35298
-21.51283
-22.12402
-16.99971
-19.85811
-30.32627
-24.80039
-22.30355
-19.16674
-17.89984
-15.57964
-15.29992
-21.02291
-21.30554
-11.27497
-18.06352
-17.21582
-20.55763
-19.61222
-21.22906
-19.49103
-20.36454
-17.66096
-25.39061
-17.57015
-20.23212
-21.20077
-18.50048
-16.66993
-21.55100
-13.16173
-13.03272
-17.15952
-12.71856
-1.15381
-7.15695
-11.96223
-9.62445
-15.87851
-22.36092
-18.87912
-9.83946
-17.55937
-10.45535
-4.11705
-5.00717
-5.12687
-6.08720
-3.78670
-2.83285
-3.54482
-8.99674
1.69549
-2.25781
-8.95497
-3.99731
-4.60237
-7.72875
-10.36926
-7.90439
-5.41667
-8.97502
-5.41852
-10.82576
-9.82669
-9.19079
-5.59683
-6.97834
-8.64628
-3.84544
-1.86697
-1.30275
-1.13969
-3.67310
-7.93056
-5.67532
-10.59375
-6.33317
-2.42029
-2.46246
-4.00240
-8.20882
-4.58841
-7.45502
-10.00662
-10.08265
-11.84184
-14.21487
-12.00382
-12.75480
-16.04313
-9.32381
-10.64822
-5.08305
-1.87672
-8.11528
-11.00124
-10.38880
-13.73262
-10.27724
-12.81680
-14.30562
-21.10866
-19.84666
-17.61426
-20.22485
-22.43233
-16.51429
-20.91919
-16.98918
-14.15023
-18.85327
-13.51279
-17.41907
-13.02622
-19.68586
-23.44851
-24.83615
-17.06426
-22.21903
-22.97418
-21.62524
-26.67001
-21.93760
-22.59511
-18.21835
-15.62052
-12.26855
-13.51274
-13.80469
-16.89711
-17.84044
-11.61643
-8.53290
-16.50752
-9.77578
-16.46739
-15.37863
-17.58684
-16.69993
-13.92342
-11.45949
-16.64519
-22.11456
-16.83259
-25.58611
-19.31628
-16.09612
-12.85191
-10.73977
-12.55631
-13.73022
-12.63103
-14.56788
-15.92598
-12.93221
-17.44860
-15.74372
-20.93164
-20.25967
-21.28061
-19.07687
-21.65575
-12.71607
-13.97901
-21.16481
-22.77725
-20.75345
-22.40171
-28.30090
-27.33172
-25.34800
-19.60738
-22.71513
-23.15822
-23.53273
-29.48536
-21.50775
-17.49115
-17.45676
-23.40022
-21.27034
-18.78114
-14.75707
-15.91529
-19.51108
-23.30547
-17.56888
-20.80240
-19.95971
-24.33748
-17.90255
-20.68500
-19.84169
-16.42283
-15.38297
-17.48754
-16.93867
-14.77991
-11.74219
-8.42492
-14.54143
-10.46685
-11.06127
-8.81530
-6.29435
-12.48742
-14.60475
-14.83531
-22.37871
-15.84763
-12.75205
-14.86953
-21.29377
-25.26077
-25.94376
-29.32656
-18.67781
-17.55109
-17.75117
-12.24349
-17.49218
-23.26569
-9.20092
-12.32169
-13.84524
-15.34849
-21.87429
-20.49025
-17.68533
-23.79605
-28.05313
-18.67522
-18.32281
-8.09670
-5.52102
-6.05434
-10.26089
-5.26589
-12.58410
-11.79071
-14.54564
-9.46859
-8.38856
-9.18221
-15.91450
-14.96738
-14.68402
-14.86844
-9.84733
-17.52929
-16.47942
-4.22401
-2.90889
-1.58278
-2.13861
-2.71583
-3.71362
-3.33242
-7.60233
-3.28605
-8.18950
-7.73451
-7.97434
-8.90405
-9.94186
-5.76502
-15.71342
-13.72097
-8.85832
-3.81507
-6.76884
-3.81016
-4.96164
-5.38825
-10.45017
-3.01284
-0.57214
-4.05536
-5.83622
0.49630
-2.98044
-2.74872
-6.73591
-6.11252
-3.49366
-6.98638
-3.84431
0.99038
-3.65424
-1.18579
-8.91248
-1.15560
-1.14328
-11.03640
-5.54568
-7.00609
-0.50257
-5.97227
1.36972
-5.21409
-8.95562
-6.02178
-6.79455
-3.93499
0.38067
6.38413
-1.29491
4.05195
-2.40220
-0.10891
-1.33117
-4.41304
-8.83539
-3.21613
-3.20739
-1.55145
-3.63617
-5.48139
-4.51458
-8.56901
-3.48062
-5.51354
-5.72289
-9.79221
-9.69601
-8.53974
-13.74829
-12.78066
-6.83012
-11.45696
-11.67345
-5.21928
-5.47892
-6.67885
-9.53162
-11.03572
-10.91207
-10.38003
-7.64087
-9.17047
-9.90761
-7.91117
-5.50012
-9.33146
-14.42568
-11.94500
-12.38826
-9.64488
-11.81439
-7.40095
-11.93240
-11.58259
-13.60230
-13.50244
-17.05467
-8.23484
-8.92363
-3.34314
-5.12154
-10.42328
-10.12610
-9.15947
-6.17464
-0.77234
-14.90026
-13.83619
-16.93290
-11.80871
-10.09742
-16.02855
-9.32470
-12.69688
-12.21136
-13.92320
-17.97286
-15.99439
-23.02690
-20.84323
-10.93289
-16.49958
-23.68766
-21.79040
-18.65644
-19.09355
-20.68211
-18.73920
-7.02661
-12.35343
-10.65504
-11.86922
-12.07404
-12.79697
-19.43916
-24.00898
-16.86319
-26.63784
-21.95404
-26.97853
-25.34291
-18.20991
-20.55412
-22.66855
-19.82575
-23.23949
-16.86516
-14.85869
-17.15070
-21.91550
-18.46165
-14.58226
-14.47027
-13.64923
-14.77293
-13.38510
-6.78562
-13.71533
-17.25906
-22.15131
-11.83188
-19.67512
-22.79754
-22.54628
-14.84262
-16.52097
-18.90362
-17.51520
-16.21245
-15.57586
-18.02579
-20.04382
-14.63696
-18.98107
-19.78457
-19.36316
-15.08936
-16.68476
-13.27501
-11.13305
-10.77866
-6.49544
-1.79661
-6.09210
-6.15780
-9.49163
-4.70118
-9.55253
-14.75788
-9.72652
-5.85730
-14.41060
-12.48881
-13.08666
-13.86434
-12.57351
-13.97139
-16.11246
-14.26713
-10.22301
-12.60352
-11.61022
-12.44162
-12.10141
-13.63797
-11.25024
-13.90999
-16.19454
-13.94605
-6.90904
-5.47514
-7.26869
-8.70863
-8.75813
-8.65054
-6.65248
-5.26831
-5.85132
-5.32819
-10.62788
-10.08704
-12.06661
-11.31397
-11.41613
-9.17774
-7.21633
-7.75688
-11.18854
-8.75784
-12.59582
-17.27861
-13.39871
-17.34376
-13.49208
-22.43282
-17.63243
-21.27334
-27.24280
-22.47996
-22.70620
-15.82394
-21.96425
-12.86145
-15.11177
-14.67860
-7.37068
-9.60827
-9.46066
-6.57695
-10.28295
-12.81253
-14.43462
-8.08604
-8.32594
-19.38392
-11.15429
-8.35033
-4.92042
-4.21321
-6.34033
-13.62655
-8.19587
1.24206
-1.68847
3.27962
-2.52163
-0.52353
5.55420
1.07180
-1.15744
-1.77064
0.86496
0.61884
4.44810
-3.05798
-3.09225
0.03729
-1.44118
-2.99821
-0.96924
-5.05554
-2.75557
-9.56539
-8.07054
-7.36699
-8.11174
-7.51699
-7.65386
-5.85207
-8.32175
-6.86380
-7.86748
-11.37992
-6.38981
-9.44248
-2.89363
-3.66629
-4.83167
-4.58184
-9.55873
-7.28412
-2.52480
1.52358
-3.19940
-6.48998
-6.62400
-3.41358
-8.57341
-7.65262
-5.70642
-6.26023
-12.99998
-12.48505
-6.93308
-9.80063
-12.38232
-13.61339
-17.10674
-11.62209
-8.58532
-13.05532
-17.06864
-12.78902
-19.56635
-12.05625
-11.69303
-15.64333
-16.44680
-14.71098
-16.21559
-20.96377
-21.38804
-22.21379
-16.72408
-17.82542
-21.63054
-19.81714
-19.12599
-13.14698
-19.18488
-17.88913
-21.92797
-17.22430
-9.88853
-13.48102
-13.18743
-16.00030
-12.18659
-13.91346
-17.83827
-19.30430
-23.26347
-24.74796
-23.91044
-22.33403
-25.66891
-27.82409
-26.06750
-18.03235
-24.22893
-27.32675
-27.62449
-25.84011
-22.47452
-17.32656
-23.59904
-29.31280
-29.11048
-28.88322
-29.97778
-26.11404
-28.74879
-23.01857
-20.97655
-19.51674
-28.42098
-27.94775
-32.74527
-29.93556
-30.97981
-22.97946
-22.10937
-25.15922
-21.10682
-19.67701
-22.42965
-27.38347
-25.22100
-18.58171
-21.67748
-22.35555
-18.66972
-21.56750
-24.79813
-13.92344
-19.59792
-21.88348
-20.77916
-26.97852
-25.23669
-23.76392
-26.03504
-23.43960
-17.23973
-16.44674
-23.75126
-27.11563
-23.65148
-22.93602
-14.81828
-12.46619
-12.13231
-12.53630
-17.03507
-14.06900
-17.06477
-26.73753
-21.19740
-16.95268
-12.28916
-14.38379
-17.50266
-18.97657
-13.99824
-16.27944
-16.53810
-15.99823
-20.83371
-16.16771
-17.25508
-20.93996
-13.88959
-13.97155
-21.35476
-16.61704
-10.81965
-15.52491
-17.55629
-13.65809
-12.99330
-8.75972
-12.89477
-10.52355
-13.13004
-5.96043
-2.05090
-0.54371
-7.49710
-8.59134
-12.63084
-16.38853
-16.18498
-14.37824
-12.92954
-14.65541
-10.75165
-11.46463
-14.15477
-18.73014
-17.45103
-16.55548
-17.15381
-12.63565
-11.59559
-13.48249
-13.94198
-16.59904
-11.08729
-10.10439
-9.28050
-7.24757
-12.97926
-17.21472
-13.04780
-8.61667
-13.43884
-11.76967
-7.09727
-9.26308
-4.22471
-7.11217
-9.35620
-7.36711
-11.17418
-4.17198
-6.19080
-9.49030
-11.85510
-4.77269
-7.40783
-5.43290
-8.39903
-4.69121
-1.91979
-3.77027
-7.23147
-4.42458
-11.42678
-6.40017
-11.25357
-6.98208
-11.55722
-8.47457
-18.50306
-8.77346
-8.98684
-14.41596
-7.50530
-10.15887
-9.80008
-9.98675
-14.17034
-12.69502
-11.15748
-12.62918
-18.77916
-13.18263
-10.78607
-11.53147
-17.63473
-13.91029
-13.56146
-12.63127
-9.82084
-14.01984
-17.06874
-16.19885
-14.85637
-18.25565
-20.60771
-25.39477
-18.41907
-14.35564
-14.12958
-15.30444
-11.86621
-9.71402
-15.23406
-12.99319
-19.36427
-15.16186
-12.00144
-11.89883
-10.18999
-9.26702
-4.36497
-1.18686
-1.59006
-4.37245
-2.30592
-10.26401
-6.13069
-8.44897
-12.92100
-10.69361
-4.05013
0.68073
-2.79158
-1.35369
-7.09419
-5.11692
-8.10838
-0.77218
-4.06364
-6.50728
-12.68819
-8.43779
-7.86723
-2.27078
-10.72239
-11.01995
-8.32016
-2.54903
-7.99983
-3.87331
-0.83969
-0.43950
-0.32602
-5.71089
-5.18875
-5.43215
-4.77980
1.88697
-0.84801
-0.07226
-5.11761
-7.82235
-2.52492
-2.65119
-2.80008
-7.54509
-3.96844
-0.35777
-5.29850
0.49228
-11.17355
-2.51369
-5.39326
-9.33216
-6.10318
-7.01576
-4.56595
-4.51119
-7.32976
-13.96264
-21.14675
-10.24672
-16.51589
-14.61970
-13.10432
-9.90028
-14.43456
-18.29292
-16.97152
-12.95079
-20.33036
-15.47398
-10.04078
-11.86765
-15.26962
-15.09707
-18.06434
-13.65848
-7.79238
-17.15581
-20.72913
-24.08305
-33.63146
-32.68870
-29.20053
-27.97285
-30.09695
-15.62919
-20.96015
-26.41816
-22.41231
-16.92171
-11.39701
-11.09001
-18.34251
-17.71583
-9.53441
-12.73627
-19.49881
-27.82515
-25.46821
-26.13439
-18.48038
-24.48382
-23.47094
-18.29548
-20.69072
-24.05664
-16.15662
-19.54599
-23.38226
-24.04740
-28.42157
-26.91171
-20.70930
-14.16664
-5.64945
-13.19351
-22.92815
-25.58464
-22.41319
-21.49770
-22.02173
-25.46649
-24.25721
-26.65924
-28.50712
-34.60755
-24.28547
-24.91750
-24.85681
-21.27268
-21.84752
-26.36997
-20.97731
-28.69066
-32.58400
-31.05159
-34.26581
-30.79689
-29.16109
-34.68772
-39.02334
-33.02847
-36.11152
-31.42409
-35.10503
-28.99504
-30.12778
-35.55834
-35.14576
-37.55968
-33.20585
-31.61103
-25.43107
-30.06637
-25.23023
-32.87726
-30.46501
-31.44379
-36.31426
-36.12149
-38.08575
-31.77881
-25.40841
-19.79146
-21.92354
-26.90065
-30.78327
-28.07004
-29.96357
-28.99973
-23.18714
-21.16452
-20.96049
-31.96409
-25.88814
-27.23293
-31.38919
-25.51738
-34.19344
-32.27386
-28.75420
-39.17455
-35.85429
-40.91093
-33.05973
-34.47391
-34.20497
-31.77418
-37.92104
-32.43564
-42.00045
-36.72562
-26.71535
-27.84815
-23.65176
-24.98748
-23.91010
-29.69947
-26.72435
-30.63279
-25.80991
-26.26536
-28.48906
-27.72612
-22.63657
-22.71829
-19.43342
-25.95828
-14.39435
-14.80162
-19.35718
-12.83219
-12.19467
-17.31164
-21.40631
-18.41238
-19.79221
-21.70290
-11.05991
-16.32959
-14.67067
-17.52562
-23.81570
-17.37102
-11.30721
-13.88786
-11.32993
-10.26393
-2.98005
-7.26387
-6.39007
-8.03075
-10.14033
-5.64882
-4.99078
-6.39682
-10.15260
-11.26770
-8.08215
-5.40323
-9.81371
-10.41374
-14.35378
-9.13786
-11.07203
-11.45859
-3.36024
-6.96136
-6.05342
-2.96026
-9.74568
-8.52122
-5.10309
-7.08627
-10.46747
-6.15451
1.14379
0.08058
1.49102
-4.79049
-5.66290
-5.65868
-12.45927
-5.93339
-4.73492
-2.66245
-5.12764
-4.27503
-7.19784
-6.69842
-6.23304
-11.91851
-9.64456
-6.68593
-8.22090
-6.08781
-3.22399
-4.05441
-4.17024
-4.78541
0.36009
-6.27491
-2.32839
-5.47258
-13.07943
-1.02146
-5.60565
-3.18957
-8.30366
-7.89677
-11.64448
-9.50199
-8.43697
-5.70259
-1.72923
-3.80967
-6.97682
-5.42284
-9.65902
-7.23297
-12.58984
-8.89203
-9.06214
-10.61049
-12.84149
-14.50604
-9.71882
-12.93486
-13.59499
-14.54803
-19.17904
-19.55941
-14.70257
-12.17701
-15.23163
-15.73119
-13.19831
-16.34687
-16.64520
-17.41235
-17.55053
-20.89875
-21.92322
-23.45315
-25.89337
-21.33629
-18.84860
-23.22754
-26.77604
-21.23143
-24.07088
-27.99261
-27.94447
-28.05479
-29.72735
-29.57718
-24.08817
-33.64681
-26.96056
-22.30611
-26.88624
-33.26501
-30.79333
-27.91664
-24.08468
-23.37824
-23.72691
-28.09209
-24.41141
-18.82152
-20.70426
-19.93764
-28.88988
-30.26864
-26.01025
-26.13798
-22.30882
-23.26203
-22.37846
-27.46118
-24.20641
-24.24335
-25.55802
-31.30965
-31.25355
-21.56531
-21.54444
-19.53582
-22.98914
-16.43724
-18.80430
-22.03811
-19.97723
-22.70275
-25.79840
-21.46760
-29.53599
-25.87634
-19.48661
-23.12293
-23.87592
-26.84305
-21.48418
-15.18918
-22.25181
-16.71797
-21.70962
-17.27662
-15.31155
-15.11030
-12.51840
-7.43514
-15.27414
-20.35921
-14.39990
-9.04590
-17.97234
-18.75069
-18.51036
-16.73410
-11.91347
-14.36648
-13.17871
-18.60997
-19.67730
-16.81371
-19.66339
-16.76241
-19.79907
-21.21767
-16.73167
-17.32973
-19.86488
-15.19657
-18.20098
-21.49451
-13.51152
-15.36334
-17.68488
-20.16231
-22.67273
-26.57571
-23.10887
-16.87803
-18.23702
-24.90806
-17.36384
-14.33299
-18.54119
-24.04158
-22.78038
-20.04354
-19.40713
-19.89175
-16.86677
-16.61937
-16.46778
-15.76664
-16.70109
-17.21744
-17.12291
-20.38251
-19.51249
-18.77534
-18.48128
-16.28208
-15.07328
-6.88722
-16.85940
-15.69176
-21.15789
-17.41832
-24.91890
-20.81945
-18.34241
-19.56111
-16.67725
-19.77542
-18.05262
-17.23845
-16.75023
-19.39911
-18.53086
-13.51260
-10.90275
-13.06625
-15.48056
-14.90775
-10.52280
-15.35654
-15.77890
-16.22074
-19.90015
-14.01219
-9.26405
-15.96714
-13.29437
-15.45066
-13.78982
-16.58858
-14.32564
-14.65888
-18.32995
-17.14421
-15.37168
-16.40115
-18.11285
-17.08440
-10.20469
-12.22403
-12.78120
-8.61773
-8.11961
-17.84609
-13.39943
-8.62464
-5.97923
-4.46111
-10.14528
-7.18508
-7.38600
-12.73069
-7.53885
-7.56161
1.11283
-4.67252
-7.86569
-4.55025
-4.90232
-4.27778
-2.64464
-6.74635
-7.00710
3.59021
-2.42607
-4.22407
-1.53449
-4.77884
-10.38113
-9.39831
-4.41039
-5.59013
-4.73006
-4.63852
-7.07130
-7.30013
-9.56575
-8.73106
-15.65250
-8.49648
-8.46648
-14.26394
-12.36882
-9.43719
-8.40608
-17.15863
-20.29294
-14.86925
-22.51832
-26.71368
-29.04908
-34.10802
-29.58924
-26.31298
-18.29478
-21.92007
-18.41523
-19.04762
-19.58167
-20.49365
-13.76936
-21.99092
-26.84203
-20.89917
-27.98841
-16.54835
-22.97929
-19.91542
-16.20352
-21.53537
-19.57312
-18.98668
-21.21406
-21.28032
-25.07216
-24.28836
-22.98991
-24.89157
-24.12599
-26.95109
-25.38997
-25.51902
-24.93560
-22.96858
-23.41931
-15.73435
-17.57367
-17.10681
-12.34616
-17.37065
-21.58633
-18.36193
-17.55410
-13.87603
-17.88685
-23.71366
-22.41293
-17.25542
-21.23007
-21.07824
-29.04724
-24.55514
-19.94813
-17.92133
-13.60272
-15.62356
-20.29497
-20.16786
-23.01962
-32.20382
-33.78561
-23.34772
-22.30816
-26.99143
-18.95776
-13.25781
-20.38332
-26.45306
-17.66936
-17.62138
-19.55791
-18.51946
-18.97894
-18.31982
-23.38242
-24.93983
-22.80891
-12.72011
-23.68221
-19.42242
-24.25172
-28.65531
-26.86760
-24.02656
-22.36193
-21.01350
-15.79232
-15.28067
-18.02126
-19.71221
-12.30828
-12.70440
-15.75728
-11.38353
-17.76111
-12.44370
-14.39413
-18.80886
-12.78054
-9.82987
-6.34934
-9.22431
-8.10283
-6.41221
-6.94337
-11.98901
-3.07942
-9.43603
-7.26397
-4.32291
1.08698
-3.22697
-7.76246
-6.15524
-7.17001
-9.60735
-14.75467
-12.02186
-7.86077
-8.49127
-4.56940
-1.80746
-5.38698
-4.94923
-4.26615
-1.32391
-4.49157
-4.30987
-3.38745
-11.15370
-7.15255
-8.61655
-3.92992
-10.29443
-3.62146
-5.52622
-1.92980
-1.06135
-3.07461
-3.83085
-5.44549
-4.39062
-4.36011
-3.22662
-3.53610
-7.49040
-8.87632
-6.11884
-11.95402
-13.36269
-12.75886
-12.13779
-12.22819
-4.59278
-7.85190
-11.08637
-12.15035
-10.05134
-5.39339
-7.01087
-7.87402
-5.04108
-6.05412
-7.36256
-7.06516
-7.45117
-11.94792
-14.52648
-15.98009
-3.92522
-9.41335
-5.88849
-6.53432
0.72566
-2.51391
-5.90592
-1.97382
-1.07474
-6.58634
-3.36419
0.28276
-5.69901
-9.60820
-10.82809
-2.65867
-2.81833
-3.72420
-4.50499
-5.19238
-8.02718
-9.01574
-10.74113
-12.08071
-12.86462
-19.90121
-14.73541
-12.62582
-11.28016
-11.82093
-10.65701
-5.32130
-6.80997
-7.16759
-4.85233
-11.08921
-10.56403
-4.22785
-3.41406
-1.88702
-6.87652
-5.28901
-6.37993
-9.68697
-9.47878
-11.37783
-6.17826
-0.54467
-2.64818
3.22488
2.58566
-10.74110
-5.40040
-5.39241
-2.74445
-2.81308
-1.69300
-3.42706
-9.01711
-7.54189
-13.04954
-12.21581
-3.37659
-2.28879
-5.06667
-1.70093
1.25101
-2.42303
-4.83850
-10.99604
-1.08931
-2.75718
-0.02568
2.04748
-0.54619
-2.66796
-1.46435
-6.85804
-7.34821
-9.31022
-6.32514
-10.35138
-7.91005
-10.62887
-10.73677
-13.07927
-21.73071
-23.08175
-15.12506
-20.07413
-19.18083
-19.57818
-24.62018
-22.36919
-17.87534
-23.86768
-24.88208
-19.18236
-14.11503
-19.21405
-15.92235
-9.07109
-11.38191
-13.38506
-5.42390
-12.51082
-14.31980
-15.60314
-15.46038
-17.60416
-17.10391
-20.77440
-24.11493
-16.12588
-17.22694
-28.06986
-30.56027
-27.69118
-26.45866
-25.00910
-22.67915
-19.47855
-24.83427
-23.82475
-19.91099
-23.94910
-23.78043
-20.41797
-23.29345
-21.46415
-15.91735
-22.17531
-22.66735
-19.19361
-17.09884
-21.90061
-22.05861
-23.37680
-21.37706
-21.54707
-27.97492
-20.42246
-23.64969
-21.54446
-16.99659
-15.15067
-19.32764
-19.90015
-17.79574
-25.60929
-22.55157
-18.06799
-11.73808
-8.69002
-11.79771
-6.23874
-15.15140
-17.45188
-14.51266
-16.78722
-15.71508
-15.74309
-16.43077
-15.17506
-10.69958
-14.71903
-13.44774
-10.83063
-9.77471
-6.95296
-13.85190
-10.46209
-3.58117
-10.84663
-11.46714
-8.34413
-8.32266
-6.93658
-2.39357
-9.84007
-12.38677
-9.18198
-12.48182
-13.23602
-10.62222
-14.89632
-14.69993
-10.00875
-11.94794
-14.84609
-13.68853
-13.01139
-8.68198
-16.82312
-15.90228
-18.84533
-17.59552
-18.51175
-20.20820
-19.57951
-21.37776
-18.02050
-10.15680
-15.48771
-15.71859
-14.67276
-19.71641
-22.74173
-21.36097
-18.56849
-15.78471
-18.74400
-11.85967
-12.72742
-18.20073
-20.69711
-18.35406
-10.17433
-9.25041
-21.56888
-25.14509
-13.41924
-18.70293
-17.55189
-20.29049
-15.20545
-21.33888
-17.26570
-10.60130
-16.59860
-11.08891
-14.37803
-15.56395
-14.24094
-6.49286
-10.06400
-9.76339
-10.44531
-10.37642
-7.54791
-12.52275
-19.09327
-25.55296
-22.00796
-24.48211
-21.27711
-15.79393
-12.65124
-13.45955
-9.95954
-6.27217
-8.36902
-15.28891
-12.38302
-12.66512
-10.70689
-13.58502
-16.54436
-15.92995
-11.81633
-7.20538
-5.10523
-3.42167
-5.18899
-5.87907
-12.10712
-7.59408
-12.13071
-13.30189
-13.61547
-13.99642
-10.89411
-16.08825
-12.28009
-10.10918
-11.77019
-18.76290
-9.49481
-8.70648
-9.68275
-6.88528
-9.43460
-2.42690
-5.98722
-5.86278
-4.58057
-0.70104
-7.11291
-5.63042
-4.96779
-3.69375
-7.42914
-0.72470
-2.50692
-7.49128
-11.59501
-3.13909
-3.68204
-2.22241
-6.40791
-5.01484
2.15226
-4.87903
-1.09772
-3.26250
-5.19475
-9.50768
-2.30384
-3.79200
-4.96201
-7.64776
-11.35981
-11.43454
-12.52097
-6.77891
-9.24064
-9.77659
-4.90529
-6.85110
-4.74193
-6.15148
-8.08712
-6.78384
-6.06390
-13.92604
-13.25078
-13.13120
-2.24645
-3.79894
-6.07674
-5.75202
-2.92613
-2.65211
-2.37109
-2.14616
-8.51420
-6.48074
-2.22882
-8.88104
-3.97907
-7.72339
-6.67260
-5.40724
-2.71674
-2.67479
-5.60770
-6.57090
-6.57450
-4.87135
-11.66397
-9.62963
-15.93731
-17.85542
-17.58458
-8.65086
-9.45404
-12.64517
-4.03677
-6.62786
-8.35783
-13.20694
-15.75639
-8.75417
-12.25325
-9.89607
-8.17289
-6.74258
-4.65757
-3.65561
-6.78012
-8.10196
-6.33355
-9.09738
-7.92449
-7.58283
-7.52300
-14.66810
-10.45901
-1.68169
-10.28787
-14.06056
-11.33815
-10.66179
-13.59677
-15.47031
-13.18644
-7.26406
-11.94210
-13.58602
-13.83931
-9.92207
-10.03739
-8.16934
-10.69627
-16.76935
-18.15687
-14.32032
-20.95807
-21.18844
-22.40853
-15.35095
-21.30196
-16.68572
-16.20688
-18.01843
-18.95413
-16.13293
-15.32078
-7.03464
-18.71975
-11.89747
-4.79500
-16.49471
-18.69656
-10.16227
-16.58066
-18.86459
-11.57242
-5.78346
-9.13381
-9.63275
-8.61093
-11.76448
-3.72430
-8.32680
-8.84096
-9.36822
-7.81268
-9.48158
1.45690
-9.28020
-5.63068
-8.51296
-6.51863
-3.54510
-6.84162
-12.50881
-13.24386
-10.24984
-3.08190
-6.06854
-6.54680
-10.76682
-11.72914
-10.92688
-13.08660
-8.60758
-12.10081
-11.34570
-13.78942
-19.08042
-15.44489
-15.89068
-17.81001
-14.72997
-13.79141
-7.53693
-13.31510
-11.22662
-12.43753
-9.74305
-17.29977
-11.83673
-9.04794
-7.18086
-5.35557
-2.95483
-6.24422
-8.86025
-6.23950
-7.74043
-6.38437
-10.70290
-6.42355
-2.19709
-4.27533
-2.10069
-6.90482
-12.87483
-8.66521
-2.87344
-9.49278
-7.76029
-7.14041
-10.65143
-14.34314
-20.50480
-13.54488
-12.46529
-11.81449
-18.94619
-17.29520
-15.84030
-17.21314
-13.76359
-12.55992
-15.26858
-13.18187
-9.29685
-16.34393
-13.89081
-13.14034
-18.51067
-17.28056
-14.33171
-15.41895
-14.99015
-21.04956
-14.00040
-8.68715
-14.89976
-18.03152
-17.64700
-18.94679
-17.79471
-17.25087
-22.59211
-26.56541
-20.58506
-20.17081
-28.26682
-30.61308
-31.80974
-35.03785
-29.75052
-27.12122
-31.17765
-34.16160
-43.06085
-34.51989
-36.97870
-36.43252
-33.67252
-33.97850
-35.68676
-32.47268
-35.19773
-38.59151
-48.30298
-49.73776
-47.23912
-44.08005
-48.04339
-45.11919
-55.69676
-54.10674
-48.42007
-48.46451
-52.65819
-53.14743
-63.50278
-67.51556
-61.86067
-60.62761
-51.48032
-59.39308
-55.20642
-59.90713
-56.24011
-58.65512
-59.62068
-58.32604
-57.09118
-61.65416
-56.36746
-59.12130
-50.86855
-46.22786
-51.62673
-56.77394
-62.28740
-49.02839
-40.83319
-40.83205
-40.34961
-37.16231
-31.81684
-30.91289
-39.82987
-28.75895
-31.58827
-29.89057
-34.63191
-36.78482
-35.70154
-38.13092
-34.77574
-34.02974
-34.24989
-35.89742
-28.42187
-33.51661
-37.99016
-33.87827
-28.35645
-29.63410
-20.83497
-29.76577
-26.87046
-28.34841
-28.56282
-30.15988
-19.94115
-20.14988
-33.30025
-40.00898
-37.52496
-38.76388
-38.09747
-39.48878
-35.15555
-33.49702
-27.41127
-24.02236
-24.24784
-23.10939
-20.94565
-17.34315
-27.19851
-20.82472
-16.69386
-15.80657
-20.48294
-19.71620
-23.33181
-16.19638
-14.24517
-5.99718
-10.08203
-20.47969
-20.29873
-22.27103
-22.49895
-23.36572
-27.37365
-23.98362
-24.41486
-25.52476
-22.40626
-26.66084
-23.83256
-22.97328
-19.92042
-24.06329
-16.86992
-19.34057
-22.40561
-19.90891
-24.95241
-32.08628
-37.49395
-33.09270
-39.60858
-31.69342
-25.31223
-30.46580
-29.84237
-20.73933
-21.91053
-28.74249
-24.73413
-34.10960
-32.30411
-32.81276
-32.77533
-33.37992
-35.43838
-30.61157
-39.22954
-37.74918
-38.11836
-33.07338
-37.18719
-33.90173
-40.46863
-34.21751
-35.72991
-37.31561
-32.73826
-32.43368
-40.64014
-36.19854
-36.55600
-42.74868
-41.23730
-41.81810
-45.69595
-38.66728
-44.54122
-41.04425
-42.91095
-39.96712
-35.16619
-39.23615
-37.28966
-36.69970
-39.85160
-34.39064
-40.23805
-42.08264
-40.89046
-31.39626
-30.94397
-39.62012
-34.95989
-39.48417
-38.98995
-26.39565
-28.92439
-29.41889
-36.02059
-41.89284
-42.07205
-39.03517
-38.88503
-42.54730
-39.81341
-53.00217
-49.52267
-56.84221
-55.72124
-49.87562
-48.65951
-44.88376
-49.18279
-44.78780
-51.51339
-50.70536
-55.91068
-46.71927
-45.89584
-48.56835
-49.38698
-45.65331
-56.68463
-51.04286
-51.91172
-50.32216
-48.62255
-51.04523
-51.50192
-51.61653
-45.97684
-37.93400
-36.82748
-36.34867
-39.36903
-29.93061
-23.55165
-28.90363
-29.67230
-31.31945
-32.17699
-30.75527
-31.48445
-31.63979
-32.26019
-31.44962
-26.65064
-26.92121
-26.27248
-18.59558
-19.53297
-23.90363
-32.25237
-29.99278
-33.26060
-31.89339
-31.62110
-40.22070
-35.06107
-38.65073
-37.12500
-30.68620
-32.34803
-32.97848
-32.16020
-29.95634
-38.90932
-37.76142
-42.49910
-44.20300
-40.75387
-37.46571
-39.17748
-41.47782
-38.35326
-35.35341
-39.74422
-38.44620
-44.38007
-34.63107
-40.72106
-34.46025
-37.27964
-24.23044
-20.50265
-24.98077
-28.53829
-27.18212
-35.59442
-31.43885
-29.23219
-22.01835
-28.53716
-32.86010
-30.43104
-29.36893
-24.07622
-34.28042
-25.04690
-22.87245
-24.30249
-23.82219
-28.72435
-30.72581
-28.79359
-27.66939
-35.46136
-30.69509
-33.62495
-50.29929
-51.33622
-46.94013
-40.26201
-30.75164
-30.40806
-33.85710
-34.84424
-34.61165
-39.64538
-24.64620
-24.49129
-26.35660
-27.78292
-35.57603
-38.21989
-40.03756
-40.92518
-31.01678
-32.34278
-37.42468
-32.37174
-32.07310
-27.07613
-23.60694
-27.37110
-28.88206
-30.55108
-30.27959
-26.64728
-22.97098
-20.97091
-25.36293
-20.83911
-24.54597
-24.10112
-14.67324
-15.25945
-23.53358
-21.77081
-28.90980
-26.25582
-20.07772
-26.42662
-22.52437
-26.71186
-24.35569
-23.49207
-22.18299
-29.10120
-29.60708
-29.25335
-32.40246
-35.51926
-30.98296
-22.49856
-16.82092
-21.96377
-21.44218
-33.37157
-27.12037
-26.98325
-28.83520
-23.85710
-22.39071
-24.52229
-25.16682
-26.51975
-29.04175
-27.25450
-24.02567
-25.33060
-27.82441
-25.82213
-24.17233
-27.97616
-25.64299
-25.11611
-20.59786
-16.07759
-23.51064
-23.77290
-26.90252
-26.29681
-32.32953
-28.61794
-29.09025
-31.41097
-35.48538
-35.78463
-46.94473
-41.72748
-35.75554
-38.13051
-43.42781
-46.54292
-46.17236
-38.86835
-43.11472
-36.79346
-36.34692
-32.75471
-34.16898
-32.90087
-40.93433
-36.30439
-37.17704
-28.67883
-31.33405
-29.54894
-35.34036
-33.53129
-30.48490
-29.71914
-31.35788
-35.52221
-38.44088
-38.99821
-42.92101
-28.25741
-35.67645
-33.62800
-25.43522
-22.87101
-27.91835
-28.40764
-27.10095
-29.74000
-33.05819
-27.68629
-23.86995
-25.66709
-19.34390
-27.02034
-36.86680
-37.49561
-37.49610
-37.93500
-45.82999
-42.84801
-34.87716
-34.21871
-37.11104
-33.08555
-33.71193
-33.88382
-32.55258
-31.30157
-25.36043
-30.99632
-26.59077
-31.50871
-33.88616
-34.50011
-31.89363
-38.72110
-46.15212
-44.63771
-42.22379
-51.05885
-49.67460
-47.83651
-51.39171
-48.86778
-56.34825
-55.10689
-55.47720
-53.91271
-55.94455
-49.93802
-47.00884
-50.29572
-55.20265
-57.42848
-62.18748
-62.67601
-59.64077
-54.10291
-54.18253
-51.55929
-53.57478
-53.62171
-51.00051
-48.74264
-55.37388
-63.64567
-66.94308
-69.62717
-59.15178
-55.42704
-46.20617
-47.28587
-49.39251
-56.52839
-55.58732
-50.42546
-43.14913
-44.19879
-42.67030
-36.70540
-50.54891
-41.94995
-39.56783
-45.06683
-45.93684
-45.18236
-44.04441
-50.69963
-48.19827
-49.33418
-46.16962
-40.02038
-38.26417
-40.81109
-43.16096
-39.37565
-44.08161
-43.63919
-44.01568
-44.83481
-39.24571
-49.45361
-42.32908
-37.40744
-41.99439
-43.50778
-48.62848
-46.05071
-48.19660
-50.08815
-48.33913
-42.16818
-42.49104
-41.98125
-41.96378
-48.01928
-50.19684
-52.78467
-49.41179
-42.08353
-44.67254
-45.36780
-57.63073
-63.98907
-64.47009
-58.03808
-68.45019
-68.29459
-69.71331
-60.20965
-67.57762
-63.51938
-55.02888
-58.61728
-52.94382
-50.38760
-54.84317
-58.24504
-58.02103
-50.79654
-48.95430
-50.41077
-51.57274
-53.06963
-59.47142
-62.10988
-61.97938
-57.58538
-61.22346
-63.79160
-76.34074
-69.46573
-72.74650
-60.50378
-49.31618
-58.12907
-62.50573
-61.35128
-74.00382
-71.90565
-64.86586
-63.23998
-66.01846
-58.84140
-54.94476
-60.85938
-60.86493
-52.37030
-56.45227
-66.07896
-64.72518
-60.33824
-60.91767
-63.78862
-69.92476
-68.01283
-66.66249
-62.49799
-69.42453
-71.20727
-74.38552
-65.94137
-61.87943
-69.55412
-64.82426
-69.99012
-67.73886
-64.57600
-65.10625
-60.01134
-56.70789
-71.18479
-69.85494
-69.28557
-75.69925
-69.70322
-66.92463
-62.21317
-61.83747
-57.24406
-65.15423
-59.68852
-55.23486
-65.84746
-61.87444
-67.73650
-66.68916
-68.23820
-60.38511
-57.52988
-62.79094
-60.66983
-66.16966
-64.45719
-63.58248
-62.00900
-51.45403
-55.68275
-63.56956
-67.13048
-61.43653
-59.84771
-68.02531
-68.89301
-63.60826
-54.06563
-58.45588
-58.79876
-63.72953
-62.13815
-65.21986
-70.06841
-70.46227
-67.68951
-72.01286
-68.71169
-64.10217
-68.44339
-77.54444
-70.65195
-71.94389
-76.30857
-75.01871
-80.68918
-80.23813
-77.67435
-77.23782
-78.18153
-77.78791
-81.21655
-72.07963
-68.75731
-81.42893
-80.79129
-81.93601
-73.35812
-73.54937
-71.09265
-68.21814
-64.13926
-58.76047
-53.93321
-54.98776
-62.71467
-62.35440
-63.43138
-57.20965
-59.16922
-57.14088
-55.27696
-46.87755
-46.97130
-48.91217
-46.87896
-39.93631
-38.40393
-46.19476
-44.81341
-37.59837
-41.31548
-35.14887
-40.43507
-39.91073
-42.71104
-56.35664
-60.00401
-57.55422
-44.15077
-39.33212
-32.93995
-33.43872
-37.92768
-39.56426
-41.53112
-36.31481
-32.20661
-32.77320
-34.56990
-33.34329
-28.77931
-31.23516
-28.66725
-33.21561
-39.49238
-49.19916
-50.58563
-44.66188
-48.34145
-46.62293
-44.84953
-39.67117
-43.53480
-35.66519
-33.41292
-26.23241
-31.38279
-34.87603
-33.06824
-32.60699
-37.63967
-33.16277
-33.41907
-42.46769
-42.68126
-49.74220
-43.12642
-37.82785
-40.34025
-36.57695
-33.77798
-34.18094
-36.08741
-35.40086
-31.23393
-35.13012
-34.45705
-38.54991
-36.99393
-36.98356
-31.01031
-35.50820
-31.36409
-29.69699
-32.55310
-24.60569
-29.93511
-30.83197
-34.77809
-35.33136
-36.35225
-38.47744
-34.79929
-33.61418
-33.43594
-30.12830
-31.48498
-31.69879
-30.12286
-23.42670
-22.39836
-25.78651
-28.81479
-23.09498
-35.55882
-37.82006
-35.04382
-39.41295
-39.64433
-36.30111
-31.52482
-28.11503
-28.06851
-24.99865
-25.08826
-30.35239
-36.07285
-30.40097
-35.33870
-34.33423
-23.82958
-34.10802
-40.96917
-34.75729
-41.30325
-42.03790
-36.36823
-41.37323
-39.30441
-39.67638
-31.59522
-30.91059
-32.96418
-36.23244
-27.80633
-32.01207
-34.79152
-25.51362
-17.87156
-24.88128
-29.53631
-25.98809
-22.20256
-26.73291
-27.89879
-30.32475
-29.36211
-29.38934
-34.01100
-31.13882
-33.96316
-27.40229
-34.45927
-40.00672
-34.11741
-40.10918
-38.14035
-45.04918
-42.17733
-36.03740
-35.88966
-29.88498
-43.23817
-41.55142
-30.60282
-26.37528
-22.69479
-23.88694
-20.67631
-22.30245
-25.69407
-24.16050
-20.36984
-23.08211
-27.51937
-29.46892
-24.04529
-31.52786
-28.88531
-30.64643
-32.04920
-32.18161
-33.29372
-40.80469
-35.57520
-43.32996
-35.98472
-29.23129
-33.09099
-31.40297
-31.89417
-36.34739
-39.97356
-34.21221
-39.08473
-30.36848
-29.65268
-34.57541
-37.77086
-44.29109
-45.99319
-44.83330
-45.79805
-40.83750
-40.39519
-40.72319
-40.40215
-45.22713
-38.26105
-48.82235
-42.73573
-43.78559
-48.97338
-55.37013
-51.94536
-46.79619
-42.37994
-39.36278
-44.42879
-43.82295
-45.29672
-44.69533
-39.78367
-42.78426
-46.72613
-45.85278
-51.42803
-62.32980
-49.92084
-49.42235
-42.09698
-36.58944
-49.75703
-53.61366
-51.54939
-52.12973
-44.86044
-40.66667