-12.99997
-11.40494
-9.36494
-11.46062
-13.64875
-12.62640
-20.73180
-13.94963
-11.67887
-11.87224
-8.25869
-17.66453
-8.56218
-10.49625
-11.80034
-18.43250
-10.59194
-1.50614
-6.02245
-4.16703
-8.36925
-10.32671
-7.48535
-5.51633
-8.59129
-9.63951
-10.65860
-14.57337
-8.83149
-9.18034
-9.56675
-13.07073
-10.93233
-10.81407
-12.11746
-9.79569
-13.74948
-6.93138
-8.85260
-13.05717
-16.73700
-12.76657
-13.69102
-11.68468
-15.48604
-19.55630
-17.41227
-12.90611
-9.46419
-9.81577
-11.95334
-7.00100
-15.99519
-15.24257
-15.52611
-7.26493
-6.59459
-8.36342
-9.91389
-11.89014
-11.03320
-12.92894
-11.58807
-13.19360
-16.25191
-12.08855
-7.71482
-9.74438
-9.21679
-13.02938
-11.77237
-10.55375
-13.52110
-17.95346
-17.93041
-19.22377
-20.70337
-18.64380
-16.41956
-20.56382
-28.48413
-21.02647
-27.90359
-23.81236
-29.05929
-21.54646
-21.61883
-22.48328
-17.36649
-18.14955
-19.40278
-25.13754
-21.96379
-22.11768
-31.65877
-34.23686
-23.72339
-21.83689
-23.02275
-29.16674
-18.98862
-16.76277
-22.66734
-22.33549
-21.89079
-23.27229
-25.00133
-29.75319
-22.86731
-19.35668
-13.65580
-20.83006
-23.96563
-24.75708
-24.66056
-25.77032
-26.08167
-23.95859
-21.00273
-13.24548
-20.62563
-23.54138
-15.27299
-19.05729
-21.42004
-15.49192
-12.90626
-13.91162
-13.74237
-18.37667
-13.91854
-6.79295
-8.46779
-19.21903
-14.92565
-4.21456
-10.64480
-15.86618
-17.06680
-12.04663
-18.91738
-17.76060
-14.45753
-11.53103
-12.01100
-14.52708
-15.77261
-8.86763
-3.24319
-11.08819
-10.77608
-8.17530
-8.33154
-8.18314
-7.94742
-5.67229
-8.18523
-14.66727
-15.00521
-12.80942
-10.86612
-12.77738
-15.27260
-8.19361
-4.52282
-7.20443
-5.19804
-2.75056
-7.80236
-9.54075
-9.53882
-8.88704
-8.49981
-1.91769
-0.60924
-3.53642
-6.66534
-7.84722
-4.19464
-6.92872
-8.87784
-6.92446
-2.08867
-7.54378
-9.71080
-1.05626
-6.98795
-7.90253
-4.67784
-9.06856
-8.28464
-8.48256
-7.86793
-10.08660
-7.20133
-8.14716
-7.22509
-11.29239
-4.87608
-9.57175
-2.40223
-10.24017
-10.89313
-11.46801
-9.79778
-6.55366
-2.98068
-2.21279
-10.76598
-10.84227
-5.35370
-5.25160
-3.27424
-4.69506
-0.02992
-6.83092
-5.01409
-6.54939
-7.20311
-8.53213
-7.32836
-6.43987
-5.13639
-5.46204
-2.53741
-3.76864
-5.45605
-6.80896
-8.08473
-10.52559
-0.77888
-0.79710
-1.39179
-5.90464
-11.56259
-14.54002
-12.13193
-5.80244
-11.14800
-10.11281
-9.03476
-6.50768
-11.72453
-10.02871
-11.56365
-8.40103
-9.87791
-0.68592
-6.87211
-12.39977
-9.30393
-9.35035
-8.74047
-7.58708
-10.81324
-7.19654
-7.41107
-6.78991
-9.12893
-4.80703
-10.81882
-3.54071
-3.27307
-7.43412
-4.97377
-10.09969
-4.74204
-7.90636
-13.84002
-9.91096
-13.28265
-14.18453
-14.63184
-13.57764
-8.41644
-11.27266
-16.11463
-16.86115
-18.27056
-20.44005
-15.20925
-15.75153
-22.64114
-20.36157
-10.83956
-13.48084
-8.54756
-21.03097
-17.33645
-19.78590
-13.66589
-7.15495
-7.34233
-14.86535
-13.34003
-15.28207
-6.93854
-11.80046
-13.68770
-8.15509
-7.68914
-12.48526
-7.88332
-0.72485
-8.70655
-4.73328
-11.34085
-7.42150
-13.17533
-16.26281
-8.95966
-15.12841
-17.83699
-17.75846
-16.12143
-21.83727
-20.75559
-11.87089
-17.68794
-22.38588
-16.10015
-13.51356
-20.20835
-14.82595
-15.34876
-19.16349
-24.40678
-23.18850
-12.11997
-13.85167
-19.68991
-27.15252
-26.30330
-21.66465
-19.14353
-22.14103
-17.62188
-21.05311
-22.01824
-17.32954
-21.07744
-22.19507
-19.03833
-21.50730
-24.99437
-23.19847
-29.52208
-22.47839
-17.91889
-22.55412
-23.90400
-26.60224
-24.38739
-31.36603
-29.65786
-31.97381
-32.26068
-29.19845
-23.36206
-28.17840
-24.38982
-23.20289
-24.32488
-26.29416
-29.74317
-34.89527
-33.23565
-32.12666
-25.79006
-32.53874
-24.91455
-28.95174
-27.71523
-41.71177
-33.35060
-28.60404
-27.06197
-30.87644
-32.07997
-35.06124
-27.86250
-29.30966
-28.76274
-26.45181
-29.08704
-38.87551
-32.53087
-37.56068
-42.62351
-45.43275
-47.18135
-53.66268
-54.57579
-49.80068
-48.43615
-47.22830
-45.65424
-41.77545
-44.81826
-43.27819
-49.83285
-46.77890
-46.59144
-55.44418
-49.59854
-47.73763
-45.22719
-50.98940
-46.29104
-44.71482
-37.23925
-48.88431
-43.58866
-38.46283
-42.58177
-42.49708
-47.47041
-46.28868
-45.16688
-46.50081
-45.51137
-43.99991
-40.46511
-44.37504
-42.49746
-36.65330
-38.88301
-46.03224
-42.21148
-46.96518
-50.22511
-42.03798
-43.72454
-46.20712
-46.34222
-47.17575
-40.55925
-46.48005
-42.99833
-46.82698
-55.68617
-53.39909
-48.23925
-55.48869
-52.46325
-50.79473
-46.92964
-49.57991
-51.09541
-48.05341
-49.63720
-58.02561
-56.95591
-49.23745
-57.43937
-55.89130
-50.95246
-51.04073
-47.19787
-43.51902
-50.46465
-46.92019
-42.73462
-56.37058
-59.28982
-56.66864
-49.30074
-50.69483
-49.64557
-53.00676
-60.47441
-58.12060
-61.75135
-60.83920
-56.30689
-53.46436
-42.65580
-51.79765
-53.14051
-48.57310
-35.55104
-46.65412
-40.29688
-40.42578
-39.63962
-40.16532
-39.80413
-36.17938
-35.76283
-38.40759
-40.34777
-42.25734
-41.66859
-40.47594
-41.48179
-41.13417
-45.06630
-42.48501
-40.04597
-45.73727
-43.51347
-43.71148
-35.30815
-37.32742
-45.56953
-50.98419
-47.07722
-56.09969
-54.05234
-52.42638
-58.33879
-61.18010
-56.62111
-52.20141
-49.38323
-56.64922
-55.08435
-45.55980
-44.07991
-45.42463
-51.49482
-50.43437
-50.18420
-51.39339
-51.95658
-49.24932
-48.18598
-55.17232
-52.40449
-47.59367
-49.97279
-54.06035
-55.08552
-50.50711
-52.77303
-52.40655
-58.27821
-60.93989
-52.27446
-49.83350
-58.65058
-51.49179
-57.87301
-51.31665
-57.20902
-51.25007
-51.54986
-56.65314
-63.38904
-68.11024
-63.82417
-58.80394
-53.40026
-60.34539
-59.94862
-57.85793
-53.63306
-53.73849
-53.77763
-54.61180
-58.15916
-59.96407
-54.24914
-54.99470
-50.81248
-57.75221
-59.87899
-61.79406
-62.49693
-61.37607
-58.81188
-50.95902
-60.24514
-53.85052
-58.71173
-56.24318
-52.41777
-59.13663
-57.42796
-61.92365
-58.76026
-56.68360
-62.59029
-58.56101
-58.55445
-56.39728
-59.19411
-51.28732
-64.66591
-63.10115
-65.26487
-54.24278
-59.62435
-60.54986
-67.37998
-64.52205
-61.82902
-63.18384
-58.19448
-59.59756
-60.63420
-65.08576
-61.27577
-60.41585
-60.90499
-64.42145
-66.56188
-64.36073
-60.70021
-65.13109
-67.08553
-63.47491
-64.35267
-64.37678
-68.14440
-67.09828
-58.71813
-60.47874
-60.05077
-63.00886
-64.84215
-65.38939
-62.01041
-55.29228
-61.73426
-63.99511
-63.35892
-61.82813
-55.61535
-57.87930
-58.05766
-60.82854
-57.52922
-60.62128
-61.52375
-55.64978
-58.13746
-63.18887
-67.81764
-63.60065
-53.12495
-57.11081
-61.30213
-65.03997
-66.31230
-59.99528
-61.00704
-61.51934
-68.41258
-60.31420
-64.21626
-65.68927
-70.32821
-64.86329
-66.59182
-63.11092
-64.91953
-72.44501
-75.04238
-66.33779
-67.17144
-72.67553
-73.84210
-73.18990
-76.36542
-78.11730
-76.84631
-75.99859
-70.16821
-73.45614
-75.85839
-67.59990
-69.89351
-69.70187
-72.70127
-74.98548
-73.27984
-65.82958
-63.78162
-69.21419
-65.46696
-67.40355
-63.62025
-62.61278
-70.58400
-73.22695
-75.26043
-71.74790
-68.83653
-66.08235
-71.92947
-63.60729
-68.92768
-72.07961
-63.66215
-74.76544
-72.66909
-70.19230
-67.54691
-69.02131
-59.47124
-55.52147
-62.51937
-55.32735
-54.79927
-56.61448
-52.30865
-45.38410
-58.73420
-57.89974
-51.15954
-52.56513
-56.09763
-48.09195
-51.70662
-60.51678
-66.16542
-61.64335
-61.59942
-56.34091
-72.47415
-69.47681
-64.85372
-61.95940
-68.12661
-65.70893
-65.58955
-58.36827
-61.52455
-67.82574
-71.12715
-78.00066
-69.01032
-72.05104
-71.75330
-76.70383
-77.02302
-78.55305
-79.27441
-75.30341
-77.25307
-74.43706
-77.80386
-72.52682
-75.55938
-78.09827
-76.61270
-75.68342
-73.75747
-70.81055
-70.03428
-67.32284
-75.30569
-79.27055
-61.80327
-67.31223
-64.21007
-69.18501
-74.90434
-77.52439
-75.36084
-69.40385
-73.12913
-70.04918
-71.58901
-70.47925
-74.01764
-76.19505
-74.95724
-76.01433
-77.00289
-75.63529
-68.14011
-65.76575
-71.10111
-62.64287
-57.79385
-61.64370
-66.70353
-68.90002
-61.37505
-60.37747
-66.25169
-66.28234
-61.35869
-62.39294
-63.65089
-65.74389
-70.22215
-67.62572
-60.71724
-62.07589
-66.52635
-67.87524
-60.01572
-60.83568
-56.11570
-52.79386
-63.89501
-59.48233
-56.48418
-61.53638
-64.16096
-67.82137
-63.75820
-70.31312
-61.26494
-61.96508
-59.27076
-50.43080
-48.88095
-48.59030
-53.16202
-54.17620
-60.31166
-60.04435
-57.47044
-52.78175
-56.27519
-54.83601
-57.99672
-50.82697
-46.44640
-48.67753
-48.07900
-45.49411
-49.78441
-51.31929
-59.13628
-51.61324
-50.29667
-51.83707
-59.98604
-59.85141
-61.51919
-56.10420
-50.20816
-58.08745
-55.51505
-53.34342
-48.36655
-48.38360
-45.77449
-40.97288
-44.87433
-40.50642
-39.14745
-42.04751
-42.20683
-40.67235
-38.66078
-47.04048
-48.34607
-50.71073
-42.95642
-39.84183
-39.08271
-41.14457
-42.83015
-37.47845
-40.72124
-49.75671
-49.37249
-53.23054
-48.57590
-43.19992
-36.38839
-36.80051
-39.32304
-43.93964
-39.16566
-35.39244
-38.81509
-38.20818
-32.00314
-27.44287
-32.04800
-29.04562
-26.33328
-25.20772
-16.40713
-23.71474
-27.42651
-38.84389
-39.67504
-39.30056
-30.62050
-31.89203
-27.51448
-23.34730
-26.29489
-29.85279
-27.04163
-27.87957
-26.85995
-24.05664
-28.68796
-29.99777
-25.17690
-25.52506
-11.77894
-17.48754
-22.81864
-12.78270
-12.21929
-12.18068
-20.54327
-25.03997
-22.20952
-20.93460
-14.66291
-12.89307
-15.66570
-13.14443
-16.16743
-10.91179
-15.33151
-13.09088
-16.32881
-15.60167
-16.05642
-12.50009
-14.63892
-18.17211
-19.20039
-16.48107
-16.36362
-7.89061
-13.90760
-7.24979
-10.05668
-10.60871
-4.69617
-9.16963
-7.88754
-11.59702
-12.08980
-10.86357
-3.12924
-1.12397
-3.11104
-0.30205
-3.41520
-5.01940
-6.80595
-4.79580
-5.10688
-7.91746
-11.00542
-6.37605
-6.60683
-20.11967
-22.44029
-24.33581
-22.56178
-22.31849
-24.58518
-23.19557
-12.87070
-7.94968
-6.46172
-2.67283
-2.36459
-1.86140
-0.34893
-5.06306
-12.40212
-7.68551
-9.67412
-12.60609
-4.95939
-10.59731
-3.51159
-1.17510
-5.57204
-6.42563
-10.63611
-10.03468
-17.73343
-13.36383
-19.79100
-20.81512
-13.01463
-11.89891
-11.20743
-14.96695
-17.07793
-13.28175
-11.37218
-13.61015
-14.31117
-15.57218
-12.61839
-13.33294
-15.65213
-15.76858
-14.27359
-13.18432
-12.64567
-12.52200
-12.49996
-7.81395
-12.72151
-12.60883
-13.51070
-21.18454
-11.78241
-15.97435
-25.74576
-20.46861
-19.98163
-18.33052
-18.61526
-18.53860
-19.67644
-12.34779
-15.05005
-17.32558
-21.72940
-17.51549
-19.17182
-22.06039
-23.18700
-21.87183
-21.81670
-21.47971
-23.93567
-18.64587
-18.10087
-21.01736
-19.70328
-23.68624
-18.29184
-27.02812
-26.51481
-27.75986
-20.17300
-24.13111
-17.58910
-20.63614
-19.79650
-15.25244
-25.39034
-23.30273
-20.37017
-26.51973
-18.77428
-14.65426
-16.12346
-18.77572
-17.04447
-18.78848
-20.17777
-16.18694
-12.52524
-15.96524
-21.49437
-21.13052
-17.05143
-12.96209
-14.01652
-12.30378
-11.06716
-10.02161
-16.58824
-15.26261
-15.99124
-11.38286
-13.84953
-12.76308
-9.88850
-11.02444
-7.88345
-12.49761
-11.18607
-10.38091
-12.75680
-12.73704
-9.47350
-9.79535
-11.53842
-6.02349
-5.70608
-6.88328
-8.81274
-8.96592
-4.86400
-4.02708
-1.90190
-4.75957
-9.25829
-6.20261
-5.30657
-6.32549
-5.74027
-6.92282
-1.42800
-7.47737
-7.70777
-6.43297
-2.88772
-6.00500
-0.72792
-2.48809
-1.71284
-0.30316
-6.14580
-3.15127
1.82402
-3.10983
-7.21060
-0.84863
-3.92177
-6.27650
-12.24850
-9.57815
-3.25003
-0.96958
-3.09201
0.92289
-2.15821
-2.30914
-3.48895
-3.97609
-2.42373
1.30998
-4.03686
-5.44570
-2.77057
-1.61827
-4.22957
-3.98227
-0.99478
3.64307
-2.81648
-0.91384
0.87414
3.43439
-3.05618
-5.36283
-4.23103
-3.66125
-4.00680
-5.86484
-8.72168
-11.27446
-3.83737
-0.25027
-0.21840
-5.60775
-9.61940
-4.44692
-7.31793
-11.42507
-6.18827
-6.49054
-4.36594
-5.71101
-13.59850
-15.47448
-9.68785
-10.28976
-8.00942
-9.57851
-13.31851
-11.63747
-5.26689
-10.90161
-10.97972
-11.08790
-15.44905
-22.42693
-12.33805
-12.83366
-11.34121
-13.36404
-1.85889
-4.22749
-9.37549
-14.76135
-10.58137
-6.96076
-13.45801
-18.90886
-13.91925
-9.73245
-11.52376
-13.24150
-10.03301
-14.15645
-10.99234
-17.05053
-15.37275
-5.72306
-7.63094
-12.57500
-17.11959
-19.10169
-12.59201
-13.69966
-12.31204
-21.39227
-21.01762
-21.20304
-18.28988
-19.48925
-13.39324
-19.78838
-18.64743
-14.17782
-15.54833
-15.12935
-11.93475
-18.27349
-17.55163
-19.00994
-14.65811
-15.08286
-16.07998
-16.93218
-11.50058
-11.39756
-18.78920
-18.37360
-20.22869
-22.43379
-19.07395
-17.59169
-24.91517
-22.69919
-27.68502
-32.70710
-30.61861
-26.74720
-28.73652
-30.27084
-30.60058
-33.86116
-29.35817
-30.48963
-37.00405
-31.89143
-32.98678
-35.70240
-26.69972
-28.95960
-31.75824
-36.94181
-30.41168
-32.35397
-38.52923
-34.25183
-42.94939
-47.14887
-34.01528
-37.20313
-43.35138
-43.75533
-37.85711
-41.39869
-37.11621
-37.03693
-41.04049
-44.48134
-42.22095
-39.13265
-38.42935
-36.53616
-30.48967
-27.83539
-31.54971
-30.90051
-43.86963
-51.01258
-56.17812
-54.71956
-61.00910
-58.33865
-55.02263
-56.18453
-47.57051
-51.90152
-55.42203
-52.74903
-52.49404
-42.49018
-41.52162
-44.11822
-48.70557
-42.95662
-42.52593
-43.37525
-42.67873
-43.51150
-45.27016
-45.04758
-46.97901
-38.75826
-42.81136
-38.58871
-37.76918
-33.59921
-31.29431
-27.44604
-32.02385
-31.17760
-26.53869
-35.79899
-35.36016
-30.78764
-34.12267
-36.26935
-33.32704
-32.13394
-32.58135
-30.17974
-26.42058
-32.31749
-35.76546
-32.24800
-24.50889
-22.99121
-17.28862
-18.17236
-15.36053
-15.21391
-11.82989
-12.09642
-11.26469
-17.15894
-20.84521
-23.80569
-23.26034
-26.29434
-24.57497
-20.82228
-21.79264
-17.71572
-18.43778
-18.50293
-24.38341
-20.77341
-25.75861
-26.05335
-21.97762
-20.38828
-20.16417
-24.40383
-20.89554
-24.12250
-23.92913
-19.46733
-23.31035
-18.89295
-16.77256
-20.67997
-19.71800
-17.94308
-14.70060
-22.51168
-20.34078
-18.31299
-20.92079
-18.37550
-14.94848
-18.71847
-18.97111
-16.99533
-14.34828
-13.84054
-16.06901
-15.66019
-15.68645
-18.08501
-15.40486
-15.26001
-17.52513
-16.80275
-19.49233
-17.79066
-16.52584
-20.58774
-14.93768
-17.80610
-22.32521
-23.01916
-17.72233
-15.57189
-11.53064
-13.54512
-15.07880
-12.26956
-13.99704
-11.28450
-9.84762
-12.48699
-19.00075
-10.38830
-16.46440
-19.21774
-14.54594
-7.73903
-13.99521
-16.65919
-17.50873
-20.71463
-19.39375
-13.32410
-9.37245
-7.66830
-9.65532
-7.50168
-10.03815
-5.26543
-10.80115
-8.10257
-10.01079
-8.82071
-19.32110
-23.65676
-11.65589
-12.26536
-20.29203
-15.04173
-5.48370
-8.80827
-7.38771
-13.57213
-9.15805
-7.80865
-9.14314
-6.25066
-7.72253
-9.88362
-10.96168
-8.46395
-9.76122
-8.27638
-9.22059
-6.29963
-7.03911
-4.05141
-10.31015
-2.53411
-5.53103
-10.98433
-7.87618
-5.94365
-10.78474
-13.31874
-11.06771
-17.47456
-22.66514
-19.49008
-11.65905
-16.67897
-19.73532
-14.20558
-16.12462
-22.93664
-21.36201
-15.99047
-13.56475
-9.71305
-12.82803
-16.83879
-17.07196
-5.59705
-8.21667
-13.50172
-15.45716
-9.20470
-9.70289
-14.87776
-20.33690
-15.06733
-17.89588
-11.47354
-12.04179
-17.50972
-15.71177
-14.45233
-14.08877
-11.87418
-17.17425
-11.99778
-11.17556
-5.93060
-10.23869
-5.23299
-12.75281
-8.42242
-4.73573
-6.82164
-10.28055
-9.66764
-4.35970
-4.77464
0.27356
-6.27837
-1.29902
-1.65582
-7.73837
-11.07068
-10.61463
-5.42604
-6.40211
-6.63603
-11.16176
-7.34450
-12.94604
-7.22536
-6.08360
-2.04387
4.28698
3.92650
-2.93501
0.50060
0.27147
-0.44021
-4.48296
-9.71767
-9.40651
-11.03709
-3.82143
-8.70513
-3.14430
-3.00842
-9.70866
-6.85019
-6.51008
-4.62613
-4.66032
1.11879
-4.14740
-5.43075
-3.37975
-5.44088
-6.77336
-10.91239
-7.10263
-8.54131
-11.97220
-9.89916
-5.53913
-9.64968
-0.41438
-2.81054
-7.74904
-9.22772
-6.25790
-0.88955
-3.53669
-5.24029
-3.71003
-6.25427
-7.97914
-10.31486
-6.29624
-9.13100
-13.17650
-11.68883
-11.62156
-10.18730
-10.07718
-9.03142
-11.20976
-18.23830
-9.32628
-10.04913
-9.06177
-13.32114
-17.71136
-19.29036
-21.04920
-9.31449
-8.83382
-15.72183
-15.65023
-19.82035
-21.89794
-12.74785
-9.10691
-14.70264
-10.18430
-13.49846
-18.41545
-16.46312
-12.21654
-14.88074
-13.42150
-13.98345
-14.29671
-11.11527
-16.57903
-13.14115
-13.40006
-10.25287
-14.28035
-6.90521
-4.57759
-5.91203
-11.45625
-12.63907
-4.30140
-10.16421
-13.53615
-11.22404
-15.04562
-13.73655
-12.15026
-10.89061
-13.77720
-11.26915
-10.78880
-13.05934
-15.40863
-15.11581
-14.13643
-15.40658
-12.20057
-12.43974
-16.39498
-14.51848
-7.88776
-9.36154
-14.54091
-9.23872
-4.95205
-6.66451
-8.18971
-8.75018
-9.38871
-5.21497
-6.36137
-7.74938
-11.37678
-17.10615
-14.74240
-20.64421
-17.23324
-22.56126
-30.14881
-29.14122
-30.27648
-34.26708
-34.06374
-32.24185
-28.70605
-33.91740
-26.86383
-30.69316
-30.30022
-30.26821
-27.69672
-30.83687
-27.11064
-29.47463
-28.26442
-24.84607
-22.95368
-29.07170
-27.48458
-28.77845
-34.45323
-29.44824
-31.32542
-24.18271
-29.13735
-23.80571
-22.76703
-24.87138
-29.01583
-22.84118
-21.47535
-31.90702
-34.07442
-29.12816
-34.73178
-33.08879
-33.01513
-30.76563
-32.51256
-41.73864
-35.79199
-40.80841
-26.71418
-32.91919
-33.70006
-36.44260
-33.18316
-31.56677
-32.42263
-29.45724
-31.17593
-36.34337
-31.40656
-30.00755
-29.22237
-37.47138
-34.91963
-33.37936
-29.18292
-33.09442
-29.45608
-23.80153
-24.67464
-23.01487
-27.68664
-30.01489
-33.14706
-25.37296
-26.61373
-28.16535
-24.42949
-28.88717
-16.62169
-22.65928
-33.96634
-27.53528
-27.41971
-23.17309
-20.84034
-19.49221
-19.23428
-13.86704
-11.58534
-12.07824
-14.11156
-22.39825
-15.27761
-20.30863
-21.76513
-15.27513
-18.66101
-12.58702
-16.99860
-15.90780
-15.37833
-11.28687
-15.20253
-19.00345
-17.75228
-13.01383
-11.05279
-10.10361
-12.21087
-12.97318
-12.96587
-15.69047
-21.52331
-14.42997
-3.43807
-8.91989
-13.92970
-13.74309
-14.34058
-11.41493
-13.99532
-10.14108
-12.72308
-12.21253
-15.28924
-14.88521
-4.43542
-9.40473
-7.99283
-14.45251
-18.53328
-13.08668
-13.46389
-12.85008
-10.06263
-10.68894
-11.17048
-5.76197
-9.62579
-6.88879
-12.48332
-6.22429
-8.23456
-3.22587
-5.47045
-6.38556
1.41409
0.22799
-1.90367
1.26767
-5.15939
-0.63137
-2.41089
-2.06461
1.36396
-0.15189
-6.53106
-8.03254
-11.80991
-11.26006
-7.60158
-7.68542
-0.77519
-10.65964
-10.31873
-5.83107
-7.02206
-6.60796
-3.60953
1.25418
-4.14435
-7.11502
-10.12798
-6.67775
-4.01921
-9.92525
-8.83662
-7.85450
-4.44062
-7.77142
-3.61931
-3.89208
-3.98211
-3.01262
-5.05763
-3.19334
-4.83887
-6.33703
-10.45455
-15.13439
-4.82840
-2.40270
0.80237
-1.62484
-1.85755
-4.10215
-1.78762
-4.14820
-0.53456
0.08866
-2.18099
1.93405
-2.00394
-5.08634
-2.04801
-4.49554
-2.58155
-6.08011
-5.47253
-7.14441
-6.29085
-6.48822
-2.28256
-5.27684
-4.91622
-5.16651
-7.12275
-3.78433
-3.35646
1.56590
-5.32299
-0.64620
-7.78869
-3.85920
-2.88461
-2.28734
-3.19485
-2.39497
-4.78581
-2.14371
-11.19839
-4.55746
-8.26153
-5.10709
-8.20518
-11.16298
-5.44523
0.50897
0.19912
-1.99511
-5.39838
-9.35870
-6.88062
-8.66916
-5.90293
-7.20334
-5.28084
-4.43296
-1.16113
-3.96616
-5.48173
-7.34499
-9.59396
-3.30163
-10.53345
-14.61935
-8.81327
-8.20975
-8.36621
-8.42452
-5.76910
-10.09933
-16.43424
-14.08126
-7.92600
-12.64896
-9.76785
-10.38231
-10.98703
-13.86821
-14.28701
-17.05630
-15.20847
-10.75144
-16.92443
-14.47222
-10.66260
-14.59908
-8.73109
-6.15389
-13.91133
-12.18081
-12.12231
-11.78262
-12.25703
-7.83051
-7.87162
-9.62556
-13.83062
-12.03790
-12.67174
-13.70187
-10.06717
-14.62165
-21.85003
-16.96999
-13.30831
-15.67642
-11.79850
-13.18056
-13.29753
-16.21271
-11.41276
-16.75242
-12.68665
-10.06101
-10.36596
-5.68795
-6.05643
-6.17585
-4.75843
-6.70123
-5.60625
-2.72234
-4.57224
-11.30221
-6.93191
-6.59870
-4.31213
-1.53740
-6.38266
-5.10346
-10.97271
-1.96751
2.04694
-8.20252
-1.48895
-10.92563
-5.06227
-3.32930
-2.49748
-4.36669
-8.87630
-9.12049
-7.79686
-8.59841
-6.35515
-4.32437
-7.38446
-9.21771
-10.17752
-12.40258
-9.16359
-2.59724
-3.99500
-4.02575
-10.12668
-2.52535
1.28092
-6.58580
-5.01772
-4.37238
-1.15475
-4.61032
-5.85193
-2.91606
-1.28094
-5.42025
-4.97749
-3.10249
-8.58918
-9.77074
-12.11768
-4.79509
-2.03918
-4.66077
-7.92587
-6.65174
-4.85558
-1.27334
-10.29398
-8.55328
-10.15047
-3.62954
-6.63613
-4.01627
-4.44819
-6.04857
-6.09477
-9.25408
-3.89383
-6.22310
-6.75869
-11.94815
-6.69543
-7.85016
-10.27277
-14.09320
-6.82571
-6.21012
-6.68129
-6.42104
-12.98759
-11.76260
-10.60689
-6.44083
-13.08163
-8.64012
-7.92857
-10.80570
-11.26701
-15.31296
-12.21714
-10.44798
-17.28989
-15.47793
-20.25021
-20.57393
-19.68551
-16.16227
-18.53944
-7.73068
-15.09593
-15.74956
-18.36030
-18.33201
-13.37523
-14.71740
-19.83470
-22.69890
-18.28613
-19.60381
-19.46739
-13.11604
-15.91225
-16.05637
-13.43722
-10.60017
-16.41131
-15.47091
-12.13165
-13.87029
-15.91976
-22.13241
-24.09403
-27.99156
-22.13966
-26.46600
-20.43084
-29.67586
-25.11308
-25.32182
-26.42939
-29.50301
-18.06794
-17.61878
-19.55809
-24.40263
-17.64090
-22.80783
-23.42800
-25.25937
-28.05467
-25.26055
-30.94353
-25.91500
-25.32124
-21.90306
-26.14679
-25.46562
-31.64405
-29.23925
-26.05915
-27.53450
-26.89192
-31.88868
-28.06438
-33.21964
-33.35910
-32.85797
-32.93499
-28.93588
-23.10633
-28.53337
-25.00163
-28.75340
-24.27690
-24.50467
-15.77509
-25.95824
-23.13846
-24.21402
-21.34341
-15.71017
-19.20674
-15.26057
-17.37471
-14.96260
-19.42073
-22.75895
-20.60897
-19.67752
-17.07233
-10.95422
-16.06867
-16.95810
-14.78783
-15.27267
-12.71357
-13.41246
-13.32246
-15.18850
-14.26877
-17.19804
-11.66844
-18.33349
-19.79011
-21.48701
-17.61620
-18.79830
-17.40874
-13.56463
-15.25227
-12.32209
-15.01424
-17.54932
-20.67356
-25.88308
-28.33402
-21.87517
-13.20637
-15.51017
-16.08631
-15.47924
-10.72423
-2.47985
-11.61343
-4.54908
-3.76228
-14.55793
-12.11193
-14.22277
-8.06257
-4.87659
-12.72425
-18.25513
-19.22728
-19.81596
-21.98244
-21.94747
-21.82931
-23.00404
-22.80241
-13.84857
-14.30647
-20.20080
-17.07878
-18.71738
-22.11352
-27.25511
-26.94899
-24.81655
-26.69765
-26.86931
-21.01059
-22.06783
-14.56909
-14.95963
-19.46487
-17.94637
-22.03281
-25.99502
-23.18915
-15.55845
-15.61786
-13.80641
-15.02875
-18.52525
-18.58732
-13.52527
-19.03201
-16.14756
-18.84614
-20.31960
-13.37514
-15.80683
-13.90585
-14.60335
-16.67061
-13.36639
-12.45606
-11.24780
-14.36264
-13.94859
-15.43683
-16.94663
-16.45423
-11.71762
-9.90592
-7.09242
-9.14324
-10.22734
-10.53669
-12.95220
-14.51770
-11.88921
-10.30395
-13.63000
-13.37147
-20.76234
-23.54976
-25.99803
-25.79807
-31.77939
-25.38246
-26.53710
-23.44189
-24.62169
-22.89306
-19.95000
-26.43224
-30.04573
-23.81034
-27.68833
-20.39577
-26.96482
-25.00559
-26.31953
-35.12675
-36.74212
-36.86709
-29.36089
-30.33679
-29.32541
-26.77695
-27.33086
-27.07615
-26.66560
-26.70719
-33.75470
-37.09777
-37.45338
-35.27638
-41.42183
-39.30580
-37.28839
-41.85612
-37.74589
-38.28189
-32.11597
-28.05264
-25.74905
-24.45490
-24.35646
-22.68774
-21.17495
-15.75928
-21.90156
-22.18055
-19.77481
-18.67360
-23.02796
-12.89684
-21.47991
-19.33811
-23.96123
-17.64114
-16.14463
-14.78128
-18.83674
-11.73930
-14.80580
-10.50211
-13.09691
-17.81466
-21.53647
-20.99120
-21.19126
-21.06455
-28.48972
-21.75260
-23.39356
-19.78989
-11.49441
-21.15193
-24.48144
-22.41636
-20.75563
-17.37679
-17.38469
-16.98619
-21.05186
-15.63487
-13.46137
-15.87268
-17.67350
-16.97122
-11.18247
-17.79780
-15.87842
-17.73040
-18.86929
-25.19254
-16.78739
-10.27387
-18.66123
-19.88741
-18.21298
-20.64847
-23.62752
-16.75175
-12.56574
-13.46784
-9.02961
-16.16715
-12.97116
-16.90528
-14.74496
-16.90928
-23.68219
-20.74849
-21.60563
-22.09007
-25.86989
-31.72197
-21.04717
-17.49061
-18.28892
-20.42549
-23.19465
-27.69615
-34.17278
-28.27478
-25.98777
-21.07035
-16.60790
-20.24346
-22.60013
-19.86664
-17.99425
-20.91194
-19.21882
-17.26652
-18.17947
-17.91172
-15.28188
-11.99712
-13.40314
-14.90211
-11.36092
-14.54080
-12.84328
-11.90097
-11.03996
-14.75603
-8.97827
-15.60520
-16.65819
-17.27286
-11.08148
-11.52968
-4.90497
-5.26743
-6.97435
2.85174
-1.89361
-1.88275
0.75534
-6.36266
2.14253
-1.49564
-5.46140
-1.81088
-5.18822
0.47531
1.70781
-2.46509
-4.07478
-5.70552
-11.49002
-17.26680
-11.90452
-7.89454
-5.32823
-4.64175
-7.67419
-8.38728
-5.95252
-8.82521
-9.79523
-4.06585
-7.81717
-7.78808
-17.10846
-11.60216
-14.19569
-16.06122
-16.15508
-16.69506
-20.19128
-28.52752
-20.09205
-20.72021
-20.45379
-14.76072
-14.08840
-16.06800
-16.68704
-9.76253
-6.76710
-6.89822
-12.50105
-14.49421
-8.26960
-5.89373
-9.65435
-13.96273
-11.88734
-6.55364
-1.76220
-7.19401
-15.00099
-15.54098
-12.17016
-19.21645
-24.76857
-29.00873
-10.45159
-10.93367
-9.76328
-15.86242
-16.73734
-12.06731
-8.13317
-12.84381
-16.79855
-12.08657
-12.75397
-13.60934
-18.30911
-27.34034
-20.55716
-16.67414
-17.37190
-13.26801
-3.66873
-10.94122
-19.24580
-26.39861
-23.95868
-25.11480
-25.20330
-27.23383
-28.17752
-30.00878
-26.86159
-23.58448
-24.67006
-27.14209
-26.62279
-17.34449
-24.60556
-25.15863
-13.94788
-23.48335
-20.38073
-21.96953
-32.82799
-25.06473
-26.24394
-22.09423
-21.33603
-20.33799
-21.17092
-23.01814
-21.19865
-20.19526
-16.79069
-11.06389
-9.02256
-10.30774
-15.15626
-11.91612
-17.51090
-12.29968
-15.50832
-12.67379
-10.11492
-13.64577
-13.11820
-14.19662
-18.80050
-16.26797
-13.67358
-13.49181
-12.18214
-15.52553
-22.10113
-27.40983
-26.62741
-20.66737
-19.55816
-20.18485
-16.80752
-18.43861
-20.23822
-26.55581
-27.37588
-26.75879
-19.25038
-24.38368
-20.70461
-26.43963
-22.45984
-19.07543
-14.26846
-24.92685
-17.36451
-20.10923
-19.19156
-17.34979
-15.95444
-17.15210
-20.16116
-18.97139
-20.17006
-27.19238
-30.69310
-24.23305
-30.78587
-27.59818
-19.02789
-13.58877
-17.50908
-18.11991
-10.14419
-11.71471
-8.46056
-17.28313
-12.67808
-11.57237
-19.42656
-17.48602
-20.13308
-18.19076
-18.59833
-12.73718
-12.24873
-14.53176
-24.83435
-23.45089
-20.14864
-16.87096
-19.24307
-12.97493
-11.39826
-17.29699
-13.60146
-15.08656
-17.21925
-13.46228
-16.52075
-10.31677
-10.41211
-13.89758
-13.12705
-12.25850
-12.05562
-9.83420
-7.78543
-8.57146
-6.37116
-7.35139
-13.22471
-6.29440
-12.60912
-12.86670
-11.27846
-7.01735
-9.71170
-6.43334
-9.76629
-7.70907
1.89345
0.07921
-4.92965
-5.90316
-11.71753
-2.34194
-7.76607
-5.48557
-9.40543
-10.58977
-9.02971
-8.43041
-6.41721
-2.92730
-2.49265
-5.84243
-4.72229
-6.71477
-10.15962
-7.96046
-8.91559
-5.70006
-3.24941
-3.16375
2.16905
0.58741
-6.05184
1.75790
0.12099
0.43567
-5.58341
-4.71885
-4.59097
-4.38675
-2.45148
0.85435
0.88662
-4.79899
-4.91192
-7.50120
-6.35020
-3.46920
-2.30348
-6.69448
-7.51873
-5.07686
-11.14320
-6.08303
-3.88391
-5.88010
-1.45763
-5.68144
-10.70499
-7.48071
-9.17725
-11.82586
-8.99773
-10.47042
-7.48345
-14.35458
-7.46227
-6.54033
-6.05144
-6.59309
-10.76516
-9.45027
-14.24383
-11.51424
-14.55583
-14.03815
-15.58710
-9.31854
-14.08197
-11.09338
-13.37415
-16.29458
-15.94263
-6.59175
-8.18819
-14.74578
-20.49869
-15.59546
-15.83130
-12.00038
-17.14614
-21.21714
-20.68756
-18.33065
-21.14120
-22.22706
-22.81559
-29.49025
-23.85982
-23.72853
-22.16193
-21.38521
-22.93423
-17.94259
-16.53457
-20.88233
-26.57375
-30.67014
-25.50834
-24.39726
-19.82402
-24.28335
-18.64295
-14.66434
-16.45873
-20.90695
-23.52250
-17.51619
-23.29049
-16.38196
-22.63716
-18.78795
-22.92318
-19.41625
-17.47652
-26.58346
-26.00015
-28.41968
-22.67593
-26.54238
-17.27063
-18.82592
-15.78121
-19.82914
-19.55760
-20.20959
-20.36297
-20.80669
-20.53953
-21.35495
-22.06302
-23.90011
-26.62152
-23.33853
-23.79228
-20.90615
-18.90522
-19.31506
-18.19600
-22.54454
-30.18683
-27.85074
-31.33095
-21.59024
-24.11089
-21.98006
-15.01794
-11.88752
-14.44110
-16.92982
-21.68524
-26.06058
-25.78414
-25.21708
-26.64400
-21.75033
-24.71086
-25.99657
-21.74316
-22.54172
-19.66513
-21.00348
-20.62472
-16.77060
-16.78821
-13.80899
-11.37923
-9.73892
-8.09567
-18.29572
-14.31697
-13.72272
-14.62976
-21.61817
-15.74461
-15.01438
-17.78508
-15.97751
-22.55269
-21.56454
-24.51231
-21.81503
-22.38585
-23.89328
-26.53083
-30.47424
-26.99429
-24.09512
-29.62118
-22.00764
-15.90482
-23.36956
-24.27865
-29.23316
-24.40549
-20.73448
-17.78345
-13.81959
-15.48126
-22.15250
-17.79104
-20.58045
-14.30060
-24.53269
-17.19414
-19.02299
-12.99749
-15.92965
-16.75911
-13.85753
-12.39062
-14.40492
-13.43916
-18.86386
-22.66568
-20.51590
-20.55423
-19.42983
-18.82615
-17.10080
-19.40037
-21.31410
-21.27933
-18.05537
-14.24375
-16.06369
-21.36892
-23.65700
-16.38213
-20.03390
-26.88201
-16.91939
-20.52866
-20.78634
-19.44681
-24.06186
-17.05646
-18.88517
-16.05462
-21.25761
-12.43797
-13.61463
-17.10081
-26.51522
-17.22157
-12.38952
-14.20014
-10.69285
-9.61488
-3.38686
-7.52004
-10.49438
-11.01549
-13.80343
-15.79250
-16.60342
-15.05521
-16.35805
-14.78124
-19.43153
-15.37490
-13.84310
-9.24975
-1.59375
-4.79760
-12.11016
-3.40188
-4.74386
-3.10209
-2.18312
-4.23975
-12.07228
-8.87078
-7.26665
-5.31376
-7.81981
0.23933
-7.95250
-9.70310
-10.22174
-8.57632
0.67721
-6.53978
-1.39311
-4.74072
-10.74507
-9.15634
-6.53494
-2.87977
-6.16037
-8.53111
-10.12566
-0.11139
-1.33729
-2.94564
-4.02680
-4.04071
-0.66359
-10.32532
-6.47868
-2.72958
-6.12115
-9.49722
-9.01875
-5.07052
-7.09179
-4.52977
-10.45795
-3.98731
-4.86996
-7.70193
-14.87592
-9.17755
-5.95822
-4.36156
-9.48001
-1.84049
-5.52800
-10.00716
-4.58202
-2.87196
-9.82181
-10.70033
-13.35232
-14.02112
-14.80865
-13.38507
-14.87097
-13.08296
-13.01637
-13.56567
-12.76239
-13.78769
-8.73184
-15.45095
-12.56232
-21.91836
-17.83434
-15.99076
-23.06383
-25.75995
-30.43171
-29.63323
-26.12065
-20.84651
-27.12021
-26.27163
-24.06728
-24.49263
-17.44457
-15.15786
-15.62504
-14.76104
-14.42834
-25.99576
-25.15553
-24.48884
-21.68762
-13.34213
-15.16679
-14.41618
-15.50841
-19.08681
-20.75422
-26.64605
-22.57001
-20.27595
-19.27283
-23.82725
-26.16734
-23.03997
-20.02858
-19.42486
-18.20809
-13.66266
-20.83601
-19.01471
-23.80846
-21.39552
-21.29949
-20.09065
-25.06709
-25.71760
-21.21567
-19.82577
-20.44317
-21.42531
-21.04092
-27.13860
-25.97178
-25.27320
-24.04741
-25.77847
-24.88908
-21.91047
-21.59446
-19.72415
-17.10203
-17.17427
-16.76317
-22.95012
-20.08266
-16.85040
-22.09987
-17.00242
-19.88637
-15.77857
-17.80382
-15.22285
-19.89642
-15.18566
-12.44228
-11.84730
-9.29867
-8.97275
-16.08660
-12.72543
-14.88747
-21.32367
-6.40930
-17.02571
-14.99257
-10.16007
-11.09862
-5.94041
-6.54191
-7.00933
-13.77944
-11.62365
-12.13586
-15.78982
-8.94139
-9.33412
-10.53172
-9.84564
-6.28996
-6.82461
-3.31059
-5.38491
-4.22517
-12.01690
-13.19165
-10.68036
-7.61434
-7.05591
-6.96220
-11.56046
-13.32530
-14.34163
-7.10527
-8.08069
-4.98509
-10.09363
-11.25095
-10.08953
-11.53485
-12.54126
-5.99870
-4.64042
-12.46635
-14.92302
-8.82941
-16.91483
-13.12524
-7.92399
-11.39731
-11.05293