-68.07358
-64.26231
-69.42116
-65.24630
-58.63231
-65.31394
-65.30045
-66.15491
-67.14261
-70.58685
-66.64302
-63.42566
-70.84526
-59.56600
-62.16969
-66.19983
-71.01584
-64.92067
-61.18469
-66.57575
-63.02366
-62.71955
-65.08259
-63.87006
-59.59814
-48.16897
-58.69676
-59.69146
-53.10463
-41.88825
-45.15531
-44.60744
-51.51998
-43.79439
-43.26509
-44.90795
-38.57498
-41.78007
-49.73871
-45.55868
-42.25189
-45.21028
-46.97137
-43.65963
-41.60438
-36.94936
-35.32781
-52.45594
-47.73308
-48.13717
-51.92720
-50.37550
-53.21607
-44.71575
-32.83850
-33.93160
-31.48680
-33.61473
-32.97916
-29.76757
-26.18423
-27.22056
-31.40385
-28.46950
-36.32244
-38.77026
-35.66015
-33.97830
-34.44677
-32.34781
-32.81808
-30.92655
-33.30082
-41.48183
-39.49047
-41.32293
-36.66610
-40.51883
-38.73230
-34.51727
-30.16533
-33.86481
-31.40893
-25.54059
-26.00964
-30.54488
-22.79534
-27.93729
-24.44073
-18.03114
-27.75325
-24.75639
-25.34254
-34.22667
-35.02866
-44.61794
-47.40813
-52.09569
-44.64729
-47.81486
-45.44680
-41.02468
-46.64512
-46.84386
-37.41251
-33.94583
-27.83750
-38.48230
-39.62457
-33.90452
-31.61892
-35.60776
-37.47396
-34.02793
-32.46600
-28.42920
-17.52384
-21.46443
-22.10032
-19.41496
-23.11895
-33.97180
-36.09211
-37.01779
-38.33475
-39.85321
-39.62344
-42.64316
-46.97347
-46.23035
-43.86599
-36.50856
-26.87366
-28.85862
-32.18463
-27.05170
-27.68895
-32.08547
-28.31878
-26.45676
-35.92120
-27.08204
-30.35163
-24.37800
-38.99473
-39.32299
-29.42132
-28.84177
-30.83012
-33.72061
-31.03063
-32.68263
-35.72734
-37.77409
-34.12005
-26.17008
-28.47586
-27.75932
-27.42818
-33.95867
-27.80999
-31.39667
-26.88968
-30.27808
-30.41528
-27.47578
-33.02329
-29.46906
-29.16153
-37.04213
-35.24852
-33.25918
-35.90671
-30.91084
-32.05465
-32.56561
-29.29705
-27.21475
-26.85976
-28.62302
-32.47000
-27.66290
-23.96711
-24.60106
-26.32686
-23.87269
-21.39320
-21.34454
-20.16755
-22.23644
-21.44160
-28.43788
-25.77779
-18.58330
-21.33406
-27.99579
-22.69578
-20.00811
-18.43629
-16.13634
-19.09100
-14.67512
-19.84255
-19.70332
-17.28602
-24.86215
-28.62353
-22.11791
-20.99298
-22.51272
-17.83214
-20.87005
-14.59485
-17.78105
-15.93067
-18.47460
-23.64807
-20.63873
-18.52337
-12.28666
-13.44316
-18.05270
-16.95514
-14.79370
-17.67790
-13.63992
-17.86452
-19.41975
-18.59228
-18.30043
-12.63541
-14.42143
-18.15564
-16.15628
-19.45948
-17.90254
-19.51762
-20.68755
-16.42537
-13.85135
-16.11353
-12.24509
-8.43034
-10.87273
-11.62145
-16.99041
-10.95170
-14.42045
-18.22481
-10.55915
-9.89517
-11.84403
-19.25954
-15.56460
-16.20202
-11.78948
-16.82908
-16.04013
-21.16021
-22.55408
-29.94775
-16.35895
-14.66091
-19.36294
-15.80877
-13.91387
-20.80575
-22.10637
-16.61098
-21.27943
-16.75615
-13.00845
-8.24048
-13.81413
-19.12355
-12.75820
-13.57601
-14.58757
-12.07863
-15.29655
-18.25041
-23.82703
-24.54276
-20.44822
-22.87407
-23.42745
-20.95382
-22.55062
-27.91456
-29.39491
-25.61264
-26.11144
-29.47898
-28.53341
-24.87992
-20.52332
-20.33264
-19.37419
-18.71756
-20.62913
-20.31810
-14.76065
-17.45725
-19.42890
-15.81920
-15.91669
-16.74328
-19.84432
-17.36833
-16.20210
-21.13629
-27.09918
-19.63040
-21.84348
-26.78928
-32.78538
-25.79335
-27.19171
-25.65198
-27.90605
-37.48331
-37.12393
-43.61779
-38.93851
-37.62570
-31.88544
-30.13595
-28.15448
-24.65920
-24.04466
-26.24502
-22.98696
-23.54801
-25.55947
-27.47354
-21.66331
-24.13488
-23.80989
-27.02761
-23.02240
-29.19943
-29.92942
-21.27774
-22.01842
-13.79917
-18.02277
-21.48429
-25.67167
-27.62105
-27.65721
-28.06518
-21.73994
-20.51373
-21.00371
-27.04599
-26.49805
-28.07405
-25.00225
-29.20948
-27.74723
-21.11043
-18.99919
-21.38219
-23.52223
-32.97236
-26.24925
-28.30351
-29.12950
-28.58333
-29.14054
-28.43891
-24.23377
-24.46150
-30.07469
-32.97917
-30.55883
-33.44204
-36.81583
-41.18039
-32.68582
-25.10312
-23.44344
-28.11980
-28.42864
-30.20172
-35.58708
-34.36833
-37.90259
-35.85246
-28.34974
-26.07793
-25.59289
-20.73065
-20.51768
-20.61203
-23.34217
-23.32083
-21.92146
-22.03913
-17.80752
-20.11293
-15.41480
-19.02057
-15.60891
-17.51242
-14.25948
-18.34042
-22.09548
-24.20121
-19.58520
-15.89393
-15.63651
-12.16490
-14.42709
-14.38805
-15.84511
-10.45006
-11.66567
-17.07331
-15.86076
-17.07468
-13.04874
-18.80697
-11.18854
-12.97233
-13.55206
-13.71750
-15.26265
-19.15509
-14.33935
-12.26939
-11.24207
-9.31012
-10.29978
-9.32852
-7.76142
-9.07736
-11.39638
-15.40988
-17.22023
-15.96681
-17.66119
-14.07547
-11.71627
-7.44988
-4.14038
-7.50792
-14.77538
-7.29359
-17.86343
-13.53014
-16.80997
-15.23175
-8.02618
-10.31702
-15.63348
-18.23561
-20.63014
-21.68363
-23.66350
-16.21871
-7.26633
-12.79977
-9.55948
-18.10929
-19.44870
-15.49149
-10.43662
-9.06183
-8.30043
-6.83670
-5.35107
-14.60598
-12.33706
-14.94045
-12.06548
-14.22043
-13.19970
-17.82025
-13.66601
-9.03837
-9.04441
-17.61323
-18.22298
-14.63011
-12.91799
-15.35810
-14.55293
-11.68321
-18.73744
-16.62563
-11.21266
-14.31212
-14.84353
-10.56441
-5.20248
-6.77623
-12.56795
-12.86584
-16.08235
-15.96334
-14.88998
-20.94147
-21.06359
-16.58016
-8.40570
-22.13300
-18.97776
-15.01155
-21.07843
-22.62951
-26.62589
-24.61203
-17.69861
-16.41307
-15.71509
-11.52733
-17.35642
-18.23690
-12.14058
-14.63607
-9.01210
-13.86926
-11.41852
-13.70133
-13.23147
-12.48243
-5.34553
-7.98548
-10.03153
-12.42164
-13.93830
-9.12276
-8.83151
-14.11275
-14.27015
-9.63547
-15.59553
-18.05763
-15.36994
-16.25513
-14.09725
-14.32597
-17.01874
-17.32282
-9.28351
-12.59010
-13.80008
-8.39779
-8.00176
-4.27088
-8.82899
-10.82784
-8.06767
-12.87095
-15.34017
-15.97115
-18.90492
-11.39798
-14.46462
-15.88923
-10.45671
-1.37229
0.93754
-2.02196
-10.67630
-6.14388
-10.59445
-11.24194
-8.57660
-8.93543
-5.51772
-11.32036
-12.47419
-9.77805
-15.07024
-12.80741
-10.56969
-7.21866
-7.00764
-7.05495
-8.94806
-10.29228
-11.44785
-6.79101
-9.55007
-5.40785
-7.28884
-6.90683
-6.94428
-3.06742
-4.57026
0.69399
-2.33381
-6.06093
-9.01321
-8.45492
-7.52054
-3.28390
-10.42366
-3.20482
-6.50813
-7.65521
-5.31192
-5.09965
-2.97317
-9.29410
-6.05095
-5.46232
-7.58163
-8.09445
-4.68477
-2.96209
0.80737
-4.63969
-5.38026
-2.60947
-8.41699
-1.44871
-7.45439
-12.89536
-7.06843
1.00145
2.29273
-1.36347
-3.11934
0.51899
-3.74504
-2.43727
-0.97402
-2.43615
1.84900
-3.50988
-9.18908
-9.89470
-1.00004
-0.95098
-10.21959
-10.50444
-1.23815
3.13931
-4.42704
-3.58246
-1.61779
-4.75441
-4.01612
-2.67471
-2.51158
-5.92191
-8.31220
-3.16689
-5.12295
-5.38495
-9.07377
-9.85494
-12.19721
-6.58339
-4.21993
-4.24497
-1.91699
-8.79311
-6.72710
-9.28984
-6.14116
-7.01530
-14.13767
-10.30088
-5.64770
-13.27832
-10.31950
-15.70966
-14.37365
-8.64115
-11.99615
-14.86988
-11.35559
-18.19445
-13.53452
-10.85589
-12.42035
-13.13907
-8.06689
-13.35282
-4.88592
-9.95362
-9.63537
-2.59297
-7.41042
-7.12889
-6.26570
-2.34277
-7.05840
-8.17738
-9.58531
-8.09113
-5.49976
-6.23289
-5.60892
-9.50336
-11.76798
-13.43585
-8.05412
-12.08296
-5.05675
-6.75092
0.97154
-9.07815
-7.39022
-12.77201
-4.92106
-6.82174
-10.53723
-8.55716
-15.18204
-21.01979
-12.43543
-8.59548
-6.69010
-10.78834
-14.36871
-17.39685
-21.33934
-24.81429
-22.43991
-17.97614
-22.58618
-25.63506
-27.60994
-23.23272
-30.51598
-29.07741
-32.22268
-29.09562
-25.68076
-21.26561
-22.74087
-16.26297
-14.42319
-7.79692
-9.98857
-11.81256
-13.80008
-22.33005
-17.12667
-12.16432
-15.15594
-17.67956
-18.76156
-18.21294
-15.03284
-10.75320
-14.78315
-14.71658
-7.68473
-16.17080
-11.11804
-6.39371
-10.31907
-14.13736
-7.11366
-7.46031
-10.42924
-8.61232
-2.57683
-1.32101
-4.74054
-8.40965
-9.48582
-10.74163
-12.20155
-6.19336
-7.06394
-2.64672
-6.78919
-6.61972
-7.57947
-3.91936
-8.66502
-9.86811
-9.48342
-8.11163
-1.00155
-4.86466
-7.77244
-8.21342
-4.06777
-2.35313
-3.19208
-8.23187
-4.21049
-2.74216
-3.76978
-2.91226
-4.21173
-6.28995
-7.34640
-7.37386
-2.48852
-7.59821
-7.07534
-10.23359
-9.36280
-3.96629
-8.88120
-9.29134
-1.57268
2.20914
-4.69914
-13.23545
-13.60120
-7.03921
-4.97190
-12.44301
-8.36476
-5.46169
-5.18431
-2.28041
-5.67202
-7.11362
-10.60360
-4.03688
-4.86597
-8.11048
-7.10454
-8.25323
-3.71309
-7.38719
-1.59798
-7.85355
-4.00532
-9.23584
-10.53439
-11.78848
-9.64180
-2.09604
-4.97327
-9.50032
-11.57933
-11.71946
-10.92819
-11.74622
-15.62997
-17.21994
-8.94954
-9.54848
-8.13658
-19.21940
-17.28967
-18.11749
-10.87200
-12.18159
-17.14922
-14.77096
-7.21609
-11.77584
-12.48814
-13.54379
-17.63470
-12.89195
-16.68947
-22.47754
-23.26345
-24.37908
-24.00437
-23.70032
-21.58846
-16.07519
-14.44528
-18.24045
-16.08799
-15.48735
-14.50234
-19.55641
-19.02092
-16.41897
-18.66775
-24.98760
-20.46838
-29.39561
-33.08723
-34.41183
-29.09978
-31.86701
-34.54194
-30.68964
-34.21143
-31.20670
-36.20523
-31.15168
-40.40708
-39.57837
-40.05655
-42.18101
-31.33872
-33.77778
-37.85146
-35.92740
-32.42600
-33.83909
-38.68871
-36.96371
-37.04515
-37.12037
-33.05937
-28.89285
-33.50212
-34.75862
-35.84870
-37.11020
-41.91417
-36.74907
-28.22190
-34.31505
-29.61792
-27.86268
-25.38090
-28.63885
-28.53256
-26.11966
-30.42333
-33.51622
-37.85222
-31.40107
-35.36787
-37.71818
-35.67615
-36.36023
-41.89199
-44.63065
-30.68123
-39.88375
-43.34456
-42.95848
-43.18756
-33.35872
-39.27194
-33.72651
-36.94379
-36.79006
-40.93419
-40.46110
-38.61066
-39.63503
-32.79641
-37.22965
-35.56285
-35.56651
-30.88668
-32.74412
-34.38588
-39.44999
-38.05993
-31.34361
-39.53006
-40.45639
-39.55248
-43.94304
-40.27259
-42.19562
-34.35874
-42.43871
-48.39772
-44.49515
-44.44864
-38.06978
-37.67589
-34.09927
-36.27418
-31.19547
-43.89730
-40.02948
-43.06779
-39.63628
-37.30493
-40.69802
-38.70617
-42.41749
-30.96014
-39.61625
-40.81274
-40.94681
-44.65366
-41.13907
-37.39441
-33.96019
-33.55789
-36.39938
-35.85133
-34.20505
-38.06327
-42.80445
-27.40209
-30.42723
-27.29049
-25.81032
-26.29572
-28.55593
-31.71253
-30.05929
-26.38298
-22.53533
-21.95838
-22.66575
-17.67643
-26.94279
-24.36479
-21.89939
-31.60210
-27.40337
-25.99054
-29.45728
-27.80217
-26.82411
-22.75791
-13.53753
-13.37282
-13.05076
-12.90022
-17.13257
-20.55602
-21.71033
-23.79464
-26.89636
-30.08050
-23.01463
-20.53359
-20.82057
-11.18401
-15.50078
-25.17343
-22.87745
-17.73696
-21.89921
-21.91077
-20.56135
-21.97265
-18.57594
-20.36633
-16.53968
-15.73565
-23.29386
-29.91307
-23.17684
-19.64535
-21.68786
-13.40265
-13.35733
-20.00796
-14.40482
-12.05139
-7.72329
-16.97901
-12.80240
-18.82708
-16.04424
-18.60078
-15.37021
-12.74090
-9.88175
-11.47144
-18.22149
-17.95798
-13.40355
-14.94168
-13.49607
-15.93621
-10.93446
-16.07996
-13.91571
-12.05754
-15.18600
-8.85414
-17.12735
-20.66425
-18.43397
-25.02221
-27.00713
-23.38952
-25.01641
-28.57620
-29.57446
-24.86718
-27.41199
-27.79689
-28.00496
-32.98076
-25.82062
-23.52673
-20.77619
-16.69458
-15.98999
-16.62859
-20.81674
-19.04324
-19.35209
-28.64222
-19.35403
-26.03426
-30.92332
-34.30893
-38.48361
-33.14395
-35.73694
-35.03741
-33.14185
-37.17452
-32.29605
-28.23776
-28.19292
-24.73153
-22.88688
-24.68326
-30.88549
-36.10798
-36.96912
-36.23415
-45.05842
-40.75281
-42.32232
-37.87327
-46.55410
-44.32483
-35.72572
-35.80827
-32.12327
-36.98685
-37.92195
-35.97284
-37.32823
-33.68285
-32.02720
-25.34927
-25.93557
-26.85826
-23.76355
-27.85287
-19.37017
-21.86402
-28.81901
-29.60161
-32.07678
-28.99840
-27.01975
-27.33158
-33.64642
-33.58687
-27.77630
-28.77412
-25.95562
-27.63764
-25.33561
-30.20526
-28.97172
-33.69854
-35.16462
-31.18510
-31.21351
-31.92609
-29.02336
-31.88064
-27.14329
-26.69938
-33.09702
-31.26385
-29.15235
-27.97058
-30.80060
-21.62080
-18.45229
-19.41366
-22.21567
-20.85408
-13.48357
-20.91259
-18.67195
-10.67834
-12.21275
-7.06183
-10.69029
-13.53457
-16.61278
-10.17768
-12.96266
-17.39388
-16.62517
-14.11351
-15.35284
-20.19940
-16.31177
-20.21493
-14.95447
-10.89862
-13.99828
-9.09746
-11.57944
-11.50702
-7.96884
-9.06042
-7.84646
-8.63226
-12.58093
-12.31760
-9.26050
-10.69296
-14.45013
-14.39535
-12.68570
-11.88505
-17.84321
-17.03260
-9.48182
-8.87059
-15.07728
-20.65888
-19.56204
-19.62610
-16.29816
-9.73428
-10.43341
-12.70035
-15.81538
-14.92685
-16.30007
-11.23664
-15.14575
-12.43681
-6.54452
-13.98710
-13.50407
-13.66273
-18.02870
-17.88687
-14.14479
-10.62519
-8.99955
-11.36424
-9.15626
-8.28809
-9.38793
-12.08066
-15.64221
-13.39553
-11.74040
-11.50966
-6.01900
-10.29854
-4.11387
-4.74203
-5.91686
-3.88710
-5.34415
-8.92564
-2.43058
0.21114
-2.92386
-9.78442
-5.14306
-10.85875
-6.49173
-7.20757
-7.70295
-5.93548
-4.86292
-4.56520
-4.85727
-1.93564
-3.28960
-2.98217
2.81472
-0.70605
-3.43650
-1.24520
-3.83812
-4.43832
-4.45334
-8.83904
-7.70037
-9.79380
-13.57945
-3.92774
-6.72543
-0.98814
-8.98296
-9.75456
-3.94472
-8.63171
-8.91862
-6.93310
-8.46862
-13.42424
-17.30412
-4.19865
-4.39321
-5.32905
-6.18057
-4.78097
-9.38000
-6.92997
-5.73981
-11.39316
-8.04140
-12.69773
-8.75979
-5.36734
-3.16428
2.39081
-4.96858
-4.93313
-6.03780
-11.98830
-9.86813
-11.53188
-9.85367
-13.44458
-11.77420
-23.71184
-15.63102
-19.56396
-16.52538
-7.94575
-16.00144
-13.72405
-13.99958
-23.98993
-24.72116
-16.47972
-18.13418
-11.18054
-20.20404
-12.11687
-13.93020
-8.66035
-13.35120
-21.13436
-13.24453
-14.88400
-8.05156
-11.06712
-10.83754
-15.17002
-13.16919
-10.83205
-7.68232
-13.68888
-15.10086
-15.31819
-17.60397
-10.95547
-13.56931
-13.57487
-15.02721
-18.98520
-10.47343
-10.56849
-19.20005
-24.40881
-21.50904
-22.66701
-15.30849
-21.54161
-18.93466
-21.56944
-20.97232
-19.25731
-25.13723
-24.07303
-11.03093
-16.90993
-10.59716
-7.00642
-20.12266
-17.18701
-8.05694
-8.16075
-10.24222
-17.03080
-13.31652
-16.22610
-12.43095
-7.76531
-10.90035
-11.71335
-21.36292
-15.90226
-16.75222
-18.55980
-15.98310
-32.50651
-21.46328
-19.96954
-22.56917
-20.47092
-18.12303
-24.81268
-20.70595
-18.51397
-11.59601
-15.39739
-22.46530
-21.45118
-20.27315
-13.76774
-17.46485
-23.05798
-26.27963
-26.72096
-21.66570
-20.64346
-27.82167
-23.20561
-34.55956
-35.70503
-37.61426
-35.14963
-28.80267
-34.18341
-30.58236
-24.55733
-18.90817
-20.78825
-27.05073
-24.34193
-31.04998
-23.86216
-17.20554
-23.33793
-27.37076
-22.45871
-24.36486
-22.82081
-21.73429
-20.26344
-32.31393
-27.28452
-27.59543
-28.38147
-30.10955
-23.64225
-32.92875
-33.73426
-31.62530
-29.76356
-31.15785
-33.29438
-38.18149
-35.58377
-32.06657
-31.25877
-30.20828
-31.10074
-20.07543
-21.56968
-21.73615
-22.31654
-20.90734
-24.68999
-23.96554
-25.71952
-23.30220
-27.67371
-32.83746
-37.19228
-35.36984
-33.87018
-35.50714
-31.98959
-32.10070
-35.70961
-36.17847
-39.64626
-30.22379
-31.90966
-31.61900
-33.43563
-35.47646
-30.13712
-24.61918
-21.89474
-27.75982
-35.39624
-37.50268
-37.96500
-38.10109
-40.71497
-43.73406
-45.31089
-42.09773
-36.41080
-43.30226
-39.19251
-31.32186
-36.40158
-32.28781
-30.46459
-33.38421
-35.65070
-33.30808
-35.57616
-38.39168
-33.63899
-34.58327
-39.09520
-40.94402
-34.81099
-37.55574
-40.88782
-34.88832
-30.14635
-31.98903
-31.09435
-24.70268
-27.23008
-32.97920
-31.73623
-34.68787
-43.14743
-46.02443
-42.79244
-44.21967
-39.08045
-47.66179
-40.65278
-35.36414
-40.57284
-41.01660
-39.03464
-36.76036
-37.75780
-35.26142
-41.46639
-36.97960
-42.29130
-45.56185
-47.72087
-45.83264
-42.44120
-45.89094
-46.56745
-49.17110
-44.26282
-33.38786
-38.55566
-35.77948
-37.62938
-37.76823
-37.08019
-34.00226
-40.99727
-36.07568
-35.31674
-42.64300
-39.79256
-41.07860
-36.20334
-41.59165
-41.76584
-44.72314
-42.92092
-48.72396
-55.40424
-54.38807
-40.31879
-41.38874
-46.35036
-54.10007
-56.47904
-55.19023
-55.44374
-61.64803
-56.83367
-50.94462
-53.79706
-49.00189
-53.48923
-54.98726
-53.57456
-55.69393
-50.10555
-50.30824
-45.97357
-47.53717
-56.44421
-52.92385
-51.61677
-41.07295
-48.68668
-48.28423
-51.13730
-45.03485
-46.33945
-43.59880
-39.37137
-39.79867
-41.68652
-40.73012
-47.83705
-36.78722
-39.69560
-48.52172
-45.85251
-43.09872
-46.62237
-54.88891
-52.92202
-51.93667
-43.64341
-47.72259
-46.99884
-39.48504
-44.56692
-53.65962
-54.62050
-48.92501
-53.91344
-51.88741
-51.77172
-56.41681
-56.40975
-60.38317
-64.61457
-65.58868
-62.03290
-71.02612
-62.06916
-65.85953
-68.05601
-73.20538
-71.85317
-70.87392
-73.10694
-75.23481
-72.03304
-75.54502
-80.19341
-81.59820
-75.51025
-77.62206
-75.13057
-73.52795
-76.79975
-62.37427
-67.12542
-70.72662
-64.59120
-65.78688
-62.24766
-68.89615
-70.68166
-69.52220
-69.94988
-67.93919
-68.76455
-72.10876
-67.47285
-69.65048
-69.99117
-64.97197
-64.06851
-65.41585
-66.37500
-67.08162
-70.65071
-67.69398
-64.51656
-68.36189
-68.68121
-69.38804
-65.14827
-60.98750
-59.00314
-61.08405
-57.68378
-52.30352
-50.29822
-52.23103
-48.57817
-52.94990
-56.07252
-50.55474
-52.61590
-53.79304
-48.28526
-52.53774
-50.90660
-53.47343
-53.51099
-47.93613
-47.76253
-47.32783
-48.23675
-42.60940
-38.87777
-44.12518
-49.23439
-47.79603
-38.77322
-37.75129
-44.17514
-42.97933
-43.90993
-44.50917
-49.46608
-45.53094
-48.40644
-51.95585
-46.73061
-51.36633
-38.01310
-37.08558
-46.63035
-44.46499
-40.92645
-39.19866
-42.87156
-45.07773
-50.12632
-44.69634
-46.85678
-56.30151
-51.27960
-54.58488
-52.80440
-45.25153
-48.53451
-44.19404
-52.97632
-38.42800
-39.14665
-47.02083
-41.16115
-41.31905
-44.02596
-38.50861
-33.34815
-37.06509
-38.12425
-32.14613
-42.13581
-42.06478
-31.56286
-40.44385
-39.49577
-38.21210
-35.78092
-31.39126
-37.31206
-41.70735
-39.46883
-37.48922
-41.39232
-37.37038
-36.10691
-37.82484
-40.13242
-39.08827
-28.89531
-29.88215
-26.22402
-23.75673
-32.46308
-23.92788
-27.46340
-21.02948
-14.47208
-18.71896
-29.67202
-24.78672
-28.64034
-30.58217
-31.66064
-28.65166
-29.99247
-30.51773
-34.25904
-30.66894
-31.41344
-34.35894
-33.06024
-34.09100
-25.11626
-27.23374
-21.08197
-22.64379
-25.36452
-23.28190
-23.76122
-24.02665
-17.54515
-25.09813
-23.71380
-31.94219
-26.38635
-29.82623
-27.39990
-31.96511
-24.57426
-34.35766
-36.62499
-32.48048
-37.52670
-33.59481
-40.31272
-36.26377
-35.86727
-40.18106
-38.98858
-33.63595
-37.53497
-34.09957
-32.37810
-31.62358
-31.14048
-29.37368
-29.19704
-29.41600
-30.96051
-23.77223
-30.14650
-28.14141
-28.63917
-28.39512
-23.61207
-33.01596
-29.10679
-35.55645
-29.54916
-29.77081
-25.44240
-33.31207
-23.91172
-25.78364
-23.79184
-27.69361
-33.71629
-34.50549
-27.62610
-30.19886
-26.14022
-30.07137
-28.23208
-28.53826
-25.48187
-27.26667
-32.57186
-27.70423
-29.77475
-27.36723
-27.69223
-29.18461
-30.77705
-26.27491
-24.63309
-19.75241
-18.42338
-21.37323
-9.40183
-21.29759
-25.14827
-25.07279
-19.04343
-25.05681
-20.58906
-23.49575
-23.63770
-19.21683
-18.13847
-22.47422
-17.54114
-18.64762
-19.09499
-24.90337
-20.79569
-26.38346
-22.28191
-24.64889
-18.74584
-23.65337
-21.42430
-22.00729
-24.14016
-22.99778
-26.06461
-21.18559
-23.75917
-28.81114
-23.33061
-29.18311
-27.79939
-33.15573
-20.86380
-27.46879
-30.02804
-28.09604
-26.90917
-24.62282
-23.73397
-25.88473
-24.69636
-26.09431
-29.93081
-19.38917
-19.71445
-25.97622
-22.69518
-15.85979
-22.68169
-21.80922
-24.39328
-18.90849
-15.70987
-14.36068
-20.63582
-20.36677
-21.75220
-16.42511
-27.86199
-23.40184
-25.87520
-26.22585
-26.01596
-31.02406
-25.11423
-25.39121
-24.02315
-28.00384
-21.93685
-22.80682
-23.75772
-28.61618
-23.96000
-23.72976
-25.90672
-28.04785
-25.65991
-25.09813
-28.06994
-28.02286
-24.49605
-24.34391
-24.85968
-29.88825
-30.79267
-37.01974
-29.76698
-28.18793
-27.46207
-28.23948
-30.27347
-28.65672
-32.24572
-27.17470
-26.92263
-34.64757
-35.16156
-39.63734
-33.26744
-27.90177
-29.76911
-34.45507
-38.80418
-29.23590
-35.43390
-31.60234
-27.11078
-34.25519
-27.42211
-28.40306
-26.69702
-24.03158
-23.75604
-18.11179
-23.21060
-23.42481
-29.92287
-27.41601
-28.77520
-25.00665
-33.27213
-32.81841
-25.91479
-22.45612
-21.42153
-21.31362
-27.50653
-32.60702
-22.81051
-18.31401
-19.98775
-16.65442
-17.77484
-21.65938
-15.92116
-23.37049
-29.41367
-28.94909
-25.33763
-24.70601
-25.30657
-22.97421
-24.99310
-19.92100
-21.41526
-14.99748
-16.28684
-20.78406
-17.89831
-18.94440
-13.59985
-19.46648
-16.76528
-17.65984
-18.29308
-14.63724
-18.74004
-19.53988
-28.30858
-29.64068
-23.20744
-24.60579
-22.00373
-26.11653
-23.40731
-25.76331
-19.97744
-17.31726
-15.78450
-11.25180
-21.99108
-19.32199
-11.86019
-5.97946
-12.36483
-13.46614
-12.41663
-12.59184
-6.36210
-7.99783
-4.44353
-5.31823
-2.64593
-7.68335
-3.92402
-7.04283
-6.58088
-12.46811
-9.12237
-14.57616
-12.54606
-13.62593
-11.84220
-10.91029
-8.73805
-4.19150
-3.68720
-2.31179
-5.23066
1.18334
-5.66552
-4.11986
-2.65738
-6.18604
-7.49038
-8.09724
-16.06617
-9.34206
-7.00917
-6.89530
-5.45626
-9.10664
-10.71115
-6.94882
-8.78000
-11.37034
-6.48448
-14.55760
-8.80835
-7.52361
-10.03433
-9.87945
-8.56430
-5.82743
-10.55581
-13.92722
-11.32819
-8.15585
-8.15378
-11.41909
-5.57100
-5.92060
-7.98376
-10.26447
-11.38611
-10.66446
-6.73273
-9.42371
-17.53443
-12.99721
-10.59115
-13.54888
-13.69752
-6.02431
-10.75939
-15.00501
-16.20017
-10.62805
-13.44350
-11.74893
-20.61735
-14.56789
-12.06616
-19.28671
-14.23709
-9.99564
-16.91688
-17.91139
-18.00750
-8.94984
-13.66571
-10.85709
-5.85276
-4.69945
-10.99596
-6.47435
-8.29907
-14.65893
-14.83514
-11.27047
-7.91684
-5.55339
-5.08810
-9.48241
-5.95851
-4.50304
-8.43163
-9.30688
-8.35540
-9.81485
-6.14776
-8.63976
-4.16213
-12.91589
-13.61292
-8.58185
-7.96186
-13.19480
-12.06835
-9.45464
-10.92798
-4.00880
1.41599
2.14418
1.00901
0.30713
-12.43973
-14.03102
-9.48229
-10.21182
-1.53097
-2.59425
0.16397
-9.35700
-3.14194
-5.17955
-9.12589
-7.21634
-3.59816
-8.70868
-12.78292
-9.04772
-11.47982
-12.71310
-13.19181
-8.51122
-13.72220
-11.30414
-13.73738
-10.36078
-7.41332
-13.06947
-14.34928
-14.19858
-9.18235
-11.51550
-8.42048
-1.83831
-5.59182
-9.77212
-14.36457
-14.92538
-7.76971
-8.48721
-6.16680
-12.69324
-19.59349
-16.35399
-14.68956
-15.02711
-13.82439
-15.34196
-17.73118
-16.86148
-16.70379
-12.58346
-19.60283
-18.18255
-23.79318
-18.28913
-9.18508
-15.65362
-14.88227
-15.09833
-14.58858
-21.58774
-15.51075
-18.73376
-10.95329
-21.89914
-17.39207
-11.43542
-20.56950
-14.44847
-12.48849
-12.99926
-10.47547
-8.03801
-9.30664
-11.75517
-11.42756
-14.55046
-15.62179
-11.27762
-10.30333
-14.28840
-12.12990
-16.17203
-12.12982
-22.13864
-19.07411
-12.49208
-8.40542
-10.52125
-15.01280
-12.08690
-4.68519
-6.34171
-9.44288
-12.94006
-13.14418
-8.43742
-12.48763
-15.12592
-8.98243
-5.43191
-7.53757
-4.95781
-9.04155
-8.60254
-8.26567
-8.76573
-18.64706
-11.80879
-9.32558
-10.12315
-9.91920
-0.54935
-5.17680
-7.48029
-8.82964
-6.53297
-7.46777
-12.01701
-13.70045
-10.38775
-8.13831
-3.84595
-4.65251
-1.51285
-6.54436
-10.11964
-0.95305
-7.27574
-6.52038
-6.05316
-6.29388
-2.86886
-2.29137
-10.48591
-8.08180
3.47374
-8.46396
-8.95335
-12.34281
-4.04869
1.49479
-2.69350
-0.12857
-7.85316
-7.96426
-4.26769
-3.80981
2.78001
-6.88445
-13.35857
-2.14484
-4.93056
-2.43674
3.40718
-2.17219
-5.46696
-3.24668
-2.29724
-5.06947
-9.81434
-1.39001
0.00427
-2.74092
-7.12617
-4.75161
-6.34126
-7.94492
-4.28391
-0.94723
-3.35059
-7.29527
2.07963
-6.06672
-5.16116
-6.04564
-6.74621
-7.74839
-5.02419
-7.40656
-11.65773
1.38504
-6.84129
-6.65776
-4.92403
-0.71848
1.33463
6.40029
-1.45064
-4.66851
-5.74003
-0.95549
-8.71304
-1.89484
1.20081
-8.00180
-7.26744
-5.47447
-8.34807
-12.09604
-5.80505
-7.40784
-11.36419
-12.12954
-12.89196
-12.05409
-4.35877
-7.53977
-10.29013
-4.52797
-6.23939
-16.92598
-11.75302
-18.92661
-12.81849
-13.54014
-11.84835
-12.88140
-8.20127
-15.46199
-17.19326
-14.80289
-15.55272
-19.12174
-15.90789
-15.36655
-20.75093
-12.84255
-11.81276
-18.20143
-16.97175
-21.91202
-17.24486
-13.00135
-18.63036
-14.88533
-17.80451
-9.81115
-17.06897
-18.22884
-20.05719
-16.83870
-15.00242
-17.74294
-21.50460
-19.19387
-24.06436
-24.43693
-24.69829
-21.21527
-23.32199
-28.06958
-14.66858
-16.07058
-22.57339
-22.73858
-21.43534
-18.79991
-20.25768
-23.19541
-24.00719
-29.52149
-25.99474
-25.70063
-25.46428
-24.01300
-25.45590
-21.72082
-26.02767
-25.31967
-24.25416
-19.12496
-15.27113
-17.95954
-17.26593
-20.50535
-23.62015
-31.14907
-34.78893
-30.33021
-31.08004
-22.72853
-23.71553
-15.87577
-31.35624
-32.53596
-30.29892
-25.85326
-28.78584
-28.99484
-33.81846
-31.47450
-28.72519
-18.10883
-22.77687
-27.19080
-37.55935
-36.96822
-41.84463
-35.12774
-36.75288
-45.10858
-42.80188
-38.33502
-39.44549
-43.16409
-36.68322
-49.88159
-43.17250
-45.13893
-56.59197
-63.43131
-62.81347
-63.14182
-34.15610
-33.18683
-32.89887
-38.71513
-32.23501
-28.30979
-25.76131
-30.65825
-30.44766
-27.19157
-21.64706
-23.27505
-27.01616
-22.20066
-20.24593
-25.41902
-26.93903
-33.09924
-31.94113
-25.96037
-28.59302
-29.91346
-18.08904
-19.19882
-17.62015
-17.81083
-29.64410
-29.64462
-30.62766
-35.33343
-35.01709
-20.11124
-24.41921
-25.29956
-26.95793
-28.81227
-28.94009
-33.84558
-22.92731
-18.82876
-15.87177
-18.15792
-19.53792
-28.05272
-22.92895
-20.41192
-14.39893
-19.88666
-11.74626
-17.02163
-22.31224
-22.33686
-16.25742
-18.75362
-16.25240
-23.61147
-20.55072
-28.79281
-30.11014
-22.03450
-25.91972
-20.98527
-13.97298
-15.69605
-21.97482
-14.62990
-23.75230
-23.91712
-24.87981
-26.53630
-18.71254
-13.88456
-16.41071
-19.35868
-15.09391
-17.28725
-14.09619
-19.62548
-19.53064
-22.58284
-20.66942
-13.72991
-14.51704
-19.32155
-12.98578
-19.12163
-19.68564
-20.38824
-19.51467
-18.33135
-17.73232
-17.90050
-14.11133
-10.03846
-15.70104
-12.37002
-17.49010
-14.39984
-12.87906
-13.57914
-11.46981
-11.39354
-8.89189
-9.85860
-18.29413
-23.56389
-25.08941
-18.01907
-18.59032
-16.08481
-17.50343
-18.69490
-23.93449
-27.31131
-26.15572
-34.96167
-26.34948
-25.65142
-19.42039
-15.56550
-20.55329
-23.75745
-23.89147
-19.96313
-21.32954
-27.30241
-23.59256
-24.03577
-23.80880
-17.82283
-19.58850
-17.52647
-16.02104
-13.92109
-22.05933
-15.97333
-18.02032
-21.59087
-14.58670
-15.72578
-13.14638
-17.12484
-15.21645
-13.53213
-13.68735
-15.27694
-11.34474
-14.11483
-18.62379
-22.92027
-11.66058
-20.28043
-19.61375
-13.58248
-9.58138
-16.24591
-14.98890
-9.38515
-6.47021
-6.15494
-4.43414
-8.99552
-10.90645
-12.61163
-11.63250
-9.11274
-7.46428
-10.88771
-16.18483
-14.08352
-13.07114
-13.43551
-11.74309
-15.19293
-12.66142
-11.98829
-6.67084
-10.31502
-12.42961
-9.06664
-7.38418
-10.54436
-7.04389
-11.92074
-13.71107
-11.16894
-5.99428
-4.09664
-8.31049
-9.68887
-11.00895
-9.64850
-12.50546
-9.68293
-8.80681
-5.10713
-3.31666
-6.98691
-3.86400
-9.29175
-3.79287
-0.79026
-2.56081
-6.11072
1.34917
0.96830
5.98261
-2.09007
-1.47909
-6.02736
3.34493
0.20257
-8.15485
-0.00608
3.41649
2.76074
6.74126
1.84278
2.24196
-0.21375
2.74612
2.13687
3.46266
5.85698
-3.24230
-1.71507
-5.54378
1.04198
-5.32892
0.67565
1.02993
6.84548
3.15631
-2.54428
-6.39549
-4.44237
1.32853
-4.23045
-2.09353
-5.44229
-5.36606
-1.40289
-0.14383
-2.81134
0.64095
-2.67466
-4.39096
0.35825
-4.61573
-6.43707
-6.22701
-10.53318
-10.13849
-7.19230
-10.40931
-5.16546
-6.42141
-2.74892
-2.55165
-11.44846
-6.19953
-3.76855
-4.72596
-1.22385
-12.43273
-11.31085
-7.41562
-6.79384
-16.88660
-9.56685
-9.78979
-15.83502
-19.51974
-12.72535
-17.68010
-7.97318
1.10485
2.94434
-9.95745
-8.02790
-10.10900
-5.09446
-6.95015
-2.53462
-7.56915
-5.69457
-8.19470
-2.66244
-11.24745
-14.05859
-15.61301
-9.57737
-11.08332
-16.67183
-14.91662
-18.53646
-14.19104
-11.07411
-18.04376
-13.16567
-6.21908
-16.11001
-17.47892
-10.97919
-14.91093
-17.25059
-13.71820
-9.57103
-4.73909
-8.53985
-12.71477
-10.75550
-10.42698
-16.85098
-15.08707
-16.11904
-21.35204
-19.49824
-18.67482
-13.66652
-18.38535
-14.50589
-14.86229
-14.79137
-14.13614
-9.03973
-13.14775
-13.73995
-12.37787
-12.15931
-5.30519
-8.19181
-12.59342
-14.17007
-16.51585
-14.19912
-21.53171
-16.25768
-11.55326
-13.77213
-14.47647
-13.41278
-15.59062
-12.82180
-14.20510
-14.16043
-16.13684
-20.93448
-19.95670
-17.85762
-21.00123
-22.15358
-21.95004
-13.62987
-18.74752
-18.08300
-19.00092
-17.83897
-20.47333
-16.06203
-16.77250
-20.47747
-19.95386
-17.74266
-20.59408
-17.46591
-18.35882
-22.74509
-17.47777
-19.45083
-16.14581
-20.71934
-22.17557
-20.24513
-29.46211
-23.86182
-27.15680
-27.42959
-26.37576
-24.89453
-22.91032
-24.62385
-21.17456
-18.52063
-25.76436
-22.11962
-27.18582
-25.68874
-20.58419
-18.30938
-20.45938
-18.54669
-15.33055
-18.21846
-12.93435
-16.98956
-13.08909
-22.80485
-19.69792
-17.62014
-15.49451
-16.34535
-15.56087
-16.63370
-17.51440
-15.92276
-16.78325
-16.18055
-21.89555
-17.32809
-23.68252
-23.10104
-18.36893
-22.51507
-15.20239
-10.50971
-10.00390
-11.24417
-3.34033
-6.66402
-12.14780
-15.49943
-14.42763
-17.01404
-23.72525
-23.14706
-19.62753
-20.97212
-16.07640
-20.40283
-12.14781
-18.22084
-15.19330
-15.47537
-17.19604
-15.13618
-15.88075
-13.35203
-15.51936
-16.66286
-14.93001
-18.02114
-13.68080
-11.60098
-12.16743
-6.88315
-11.51343
-15.69902
-9.30797
-5.05105
-8.18822
-9.96271
-11.80123
-8.93383
-13.31197
-2.82804
-6.11304
-4.63870
-8.17186
-16.48803
-18.20691
-22.62256
-16.28942
-14.36706
-14.13793
-8.08829
-9.93951
-5.42314
-9.94336
-11.35533
-10.13981
-5.09289
-11.24996
-5.10859
-9.23035
-4.61146
-11.35982
-12.83799
-14.01712
-15.91327
-10.83894
-4.68454
-10.43208
-8.77706
-8.09068
-9.91627
-10.96752
-1.54521
-4.88017
-7.04719
-6.58040
-9.74705
-10.89911
-8.61713
-3.44609
1.15984
-2.58841
-0.97288
1.26627
2.55414
-5.39686
-7.23359
-6.16423
-10.43160
-3.00757
-5.07134
0.10222
-9.62950
-8.22553
-8.08618
-11.25516
-9.98667
-7.18159
-10.56609
-16.02624
-13.16188
-4.68933
-1.39493
-3.44107
-9.65869
-5.92874
-5.99690
-4.52305
-7.49651
-6.79228
-6.06482
-10.00900
-16.92138
-13.62853
-10.49388
-15.21489
-14.91868
-9.26771
-4.96126
-15.17650
-20.00482
-14.22309
-10.75647
-12.90516
-10.49322
-7.88863
-9.54130
-12.68859
-12.81600
-13.17604
-13.58938
-11.24330
-17.79290
-24.38100
-31.02735
-26.63449
-31.28569
-31.43934
-34.10342
-33.01492
-28.49748
-31.11750
-32.29601
-25.70708
-21.96806
-23.94900
-23.64178
-19.92706
-27.26754
-29.92196
-30.25308
-23.97110
-23.56986
-17.08243
-21.79436
-21.69559
-22.69736
-24.41469
-23.91270
-24.24040
-25.80556
-25.21140
-22.61170
-25.24122
-33.73336
-30.12291
-28.67365
-22.50448
-28.82471
-18.65130
-22.64309
-21.37834
-20.10737
-23.07850
-26.03876
-29.18556
-29.29861
-21.71371
-24.01895
-26.28601
-30.13416
-25.40720
-24.30850
-20.14371
-11.73076
-22.82223
-25.69164
-17.34518
-19.37752
-18.39849
-25.67654
-22.39168
-27.06311