-15.86381
-13.48871
-11.94880
-5.04246
-8.21966
-8.75556
-12.03581
-17.99473
-8.81336
-10.18967
-12.17505
-15.72457
-15.04621
-15.88057
-20.53597
-19.36633
-20.30905
-16.32891
-12.93939
-10.93408
-5.95909
-13.52876
-17.97218
-14.19121
-13.63516
-13.41068
-11.77087
-7.74158
-9.50712
-7.39491
-11.01417
-9.31799
-9.07270
-11.01234
-7.06577
-6.62551
-7.54136
-2.57599
-9.42953
-7.51148
-3.92127
-1.22801
-13.34142
-10.42101
-3.04340
-0.49704
-5.32522
-1.85977
-4.54042
-6.80872
-6.43412
-8.45887
-4.97283
-7.32792
-6.96952
-7.50990
-9.97892
-2.07270
-7.46002
-12.56980
-8.44749
-11.65709
-9.43618
-6.11007
-8.98523
-8.76400
-9.83084
-13.53278
-13.13664
-17.49101
-14.20864
-9.07282
-14.24256
-13.03500
-10.78140
-16.46995
-10.78161
-12.55459
-10.35536
-13.81452
-14.86382
-11.04730
-14.07595
-12.46220
-9.78494
-8.06396
-10.99699
-6.39621
-2.26996
0.79409
-1.01412
-2.39090
2.73274
-10.32627
-15.31613
-20.74129
-10.93652
-11.14039
-13.08248
-8.78051
-8.60406
-13.51151
-19.13605
-13.88502
-13.55668
-16.66852
-11.99955
-7.85338
-16.24774
-16.04289
-17.95911
-8.58137
-8.94449
-10.28298
-9.11099
-15.36313
-23.74502
-30.86132
-18.89505
-28.70342
-34.03752
-43.38465
-43.35308
-34.31306
-25.20086
-36.66934
-40.91636
-35.33252
-39.07001
-33.49209
-33.63612
-34.80231
-40.87205
-46.11624
-42.55724
-45.74545
-38.39694
-46.37471
-45.85795
-41.14808
-40.80556
-52.54953
-47.96730
-47.44318
-41.47717
-35.08094
-36.33188
-38.02230
-40.07628
-42.56387
-40.54299
-31.68831
-32.37987
-41.15451
-34.55264
-31.52626
-31.06500
-35.49532
-34.37602
-25.81625
-35.12826
-30.60638
-40.48503
-34.48134
-32.52030
-35.37319
-28.35692
-28.08892
-26.24794
-34.85715
-37.21904
-31.54670
-27.59279
-25.80162
-26.42438
-33.74143
-28.45111
-21.63739
-26.31066
-22.31732
-25.47948
-30.78912
-31.65445
-23.65617
-28.45568
-29.48003
-34.58027
-25.70600
-34.21808
-26.89054
-31.13653
-37.46937
-28.20024
-30.00231
-25.40458
-25.43443
-32.11215
-29.87789
-28.86487
-30.35537
-32.85238
-28.19008
-31.15626
-28.43703
-28.09315
-27.67016
-23.07236
-25.45173
-24.47783
-21.36880
-16.09812
-16.47301
-20.41844
-24.44941
-25.34357
-28.77934
-32.27252
-30.26464
-25.25069
-23.01144
-28.37878
-26.61125
-23.50840
-24.76381
-29.14832
-28.19512
-24.45650
-28.75926
-26.21946
-25.86737
-29.57153
-28.62882
-20.72099
-15.54291
-10.08081
-13.65743
-16.20801
-12.36412
-16.82171
-16.82718
-26.17510
-23.17390
-22.50112
-24.10869
-27.60276
-24.19454
-28.78145
-31.08523
-32.41000
-30.54398
-20.39782
-19.63354
-20.30314
-21.42933
-18.12672
-18.82253
-19.62436
-20.09336
-22.51440
-24.21132
-22.76892
-26.26198
-18.74118
-26.92743
-24.16357
-16.26968
-14.91134
-13.63618
-18.05860
-22.54345
-22.15338
-21.03734
-20.38638
-29.38981
-37.91058
-36.69505
-34.04772
-35.30045
-30.85482
-34.23116
-24.91418
-23.47107
-26.48254
-30.06749
-30.56704
-28.70613
-33.11676
-23.96702
-24.39794
-28.86124
-26.71704
-28.19728
-32.36686
-27.33623
-24.91970
-30.89013
-28.36770
-24.54038
-23.40887
-30.93650
-27.39977
-30.99047
-28.17482
-28.57879
-24.31170
-21.36646
-30.74279
-28.09728
-25.83004
-25.83621
-28.58376
-35.39110
-32.76514
-26.65731
-30.40186
-31.31269
-25.70550
-24.07688
-23.18517
-20.29721
-19.68784
-19.36060
-20.56854
-21.16198
-16.75338
-19.20799
-18.12724
-17.11688
-13.80707
-12.58023
-8.39763
-7.84907
-4.65462
-13.55779
-10.82111
-11.15462
-9.34655
-16.12031
-18.00036
-21.75361
-19.22771
-16.02708
-15.33156
-11.99283
-8.94543
-15.09076
-10.41090
-14.60606
-17.75658
-24.86018
-15.74265
-20.18616
-20.29905
-23.25787
-25.65932
-19.48252
-22.80247
-23.78305
-26.59199
-21.59660
-19.01888
-25.92280
-30.91679
-21.27621
-23.20291
-23.96846
-21.06775
-24.23603
-21.68597
-25.06196
-19.39921
-12.44315
-18.10383
-9.55847
-15.70198
-13.62358
-15.69065
-18.92363
-17.46860
-12.71626
-9.97741
-18.66133
-11.96879
-7.95757
-10.84037
-4.38570
-6.95501
-8.65024
-11.50296
-8.85210
-10.99928
-11.56928
-12.18545
-11.87480
-2.36791
-8.75932
-9.27145
-8.69972
-9.68259
-11.91137
-13.02358
-12.38406
-10.51445
-2.07756
-5.13554
-6.88110
-7.34600
-9.21126
-6.25204
-5.39791
-12.60286
-13.77716
-13.68940
-10.11948
-9.77136
-10.01364
-8.55964
-13.71458
-9.13931
-13.03403
-13.79218
-13.52082
-13.43049
-5.10258
-13.36469
-11.66940
-16.27843
-15.46638
-15.09090
-12.25982
-9.80127
-5.25324
-11.93569
-8.37697
-9.86547
-8.93675
-5.36125
-14.74026
-13.32555
-11.92545
-2.46089
-17.20380
-16.80152
-15.21193
-10.18371
-11.97044
-10.88051
-11.06243
-12.61721
-15.81440
-16.00323
-20.40943
-19.31425
-15.11114
-21.84069
-22.86135
-17.41186
-16.18038
-14.79708
-25.95564
-21.59313
-22.31634
-21.32620
-29.74258
-23.24143
-21.84886
-22.45359
-21.76337
-18.44487
-16.67672
-17.24655
-29.56120
-34.07760
-33.48699
-22.98160
-23.27922
-15.40576
-21.49823
-20.39162
-22.19013
-24.50297
-20.23898
-17.24117
-19.60058
-17.41275
-17.56885
-19.52837
-23.95974
-24.41117
-23.76469
-24.16949
-29.97579
-29.66524
-28.00699
-21.55935
-16.42819
-21.35917
-28.05786
-26.02416
-24.27030
-22.38987
-29.60632
-21.92838
-20.22450
-17.07984
-25.25371
-23.33918
-22.70152
-20.75116
-22.51236
-27.33802
-27.82159
-23.30878
-24.55096
-19.93800
-26.09089
-19.03879
-19.57524
-20.47317
-18.04191
-16.73598
-16.66984
-20.84480
-18.83040
-21.41314
-23.04846
-22.99652
-26.05144
-24.60926
-13.89168
-12.99067
-19.18603
-15.81077
-9.22004
-7.58299
-10.07534
-13.92910
-13.30568
-16.61191
-13.02556
-14.23254
-16.44052
-17.96906
-10.17768
-8.89031
-4.35613
-14.52343
-17.48068
-15.63774
-9.33510
-5.02119
-5.99594
-17.10800
-14.07473
-9.81738
-16.55572
-14.40260
-14.54028
-17.16161
-18.96248
-17.25437
-15.61832
-12.59916
-18.78110
-17.65179
-17.44787
-13.15072
-18.85334
-18.85276
-17.51999
-19.05745
-15.37886
-17.25280
-7.93179
-13.46146
-17.84701
-26.99130
-18.58866
-17.55317
-24.59776
-13.98144
-5.05380
-11.57962
-8.01641
-6.86229
-10.86400
-10.59165
-16.57619
-12.34316
-9.92840
-8.06638
-4.10279
-2.89965
-9.70897
-7.65068
-5.38308
-5.66519
-11.21723
-4.64170
-12.97695
-10.03889
-7.41741
-11.55914
-11.57099
-15.43312
-12.67434
-14.97321
-11.48168
-3.78565
-2.00138
-6.47471
-2.26055
-0.14162
-1.31782
-4.15912
-11.76886
-6.02793
-1.59825
-3.98023
2.26747
-9.89370
-7.23605
-3.89893
-5.77998
-10.35450
-14.02174
-3.68130
-3.19007
-8.71586
-10.89545
-14.56565
-10.32532
-6.90775
-7.49090
-3.22884
-2.83250
-16.03240
-15.97400
-18.10311
-15.91614
-22.84910
-23.30427
-19.96638
-20.33644
-22.79468
-17.58498
-18.87568
-20.64732
-21.79738
-11.95305
-8.06132
-15.40577
-17.50908
-14.37139
-16.47989
-16.36417
-12.72722
-20.18163
-22.81955
-12.21721
-23.10666
-19.61865
-20.57804
-16.24791
-20.51914
-25.15313
-17.61439
-19.72386
-21.56088
-22.19460
-25.08412
-32.45286
-27.97755
-31.92017
-29.22480
-27.47788
-33.91127
-31.31854
-38.72075
-36.09888
-32.83932
-36.93486
-32.94675
-28.41561
-31.91896
-28.15641
-35.36309
-34.64622
-38.87193
-33.69604
-32.02733
-24.84829
-27.10827
-29.83649
-24.18270
-25.85501
-23.01651
-26.00736
-27.65028
-31.04430
-29.77396
-24.88142
-27.45187
-19.03731
-26.37828
-27.71588
-32.33395
-26.45733
-22.74147
-27.17997
-31.23295
-29.49725
-34.19692
-36.63295
-29.64543
-33.74712
-36.97025
-38.47544
-35.04897
-29.97936
-34.63882
-34.73510
-39.29957
-37.92507
-41.46557
-34.03915
-37.35634
-42.89843
-43.25935
-50.83783
-51.01393
-60.51858
-64.86370
-72.45110
-61.69120
-62.12133
-59.68293
-55.80570
-61.08585
-57.79838
-50.97632
-55.99872
-57.27712
-48.88430
-53.98766
-49.93464
-51.92636
-50.50031
-49.52904
-47.86672
-53.42147
-53.41450
-56.64242
-60.31420
-58.85325
-56.95995
-55.43826
-57.43404
-61.42871
-62.32564
-60.64706
-60.31147
-60.74292
-60.23806
-58.05607
-54.79389
-60.91729
-63.80659
-72.46789
-62.48626
-73.71882
-71.60662
-64.28549
-55.30522
-57.47121
-56.50202
-61.83630
-59.03505
-63.70255
-64.85154
-65.24458
-60.91388
-62.86136
-70.13398
-62.92614
-64.67617
-58.64252
-65.45513
-58.73162
-62.46889
-63.96876
-68.27654
-71.30626
-61.83939
-54.05620
-50.40031
-51.35167
-49.08098
-57.54317
-53.28948
-50.52901
-51.49558
-45.90552
-52.40519
-47.64153
-44.85909
-52.97710
-54.35464
-49.88099
-54.32751
-49.99994
-41.06503
-42.94889
-44.26574
-49.94856
-52.81000
-48.73626
-44.16494
-39.58521
-28.10503
-35.83938
-45.05746
-48.95711
-55.05357
-57.40025
-60.58084
-57.98971
-54.77318
-57.16847
-53.07330
-53.76355
-57.99013
-49.57735
-46.87642
-53.47699
-55.59867
-60.70019
-55.71653
-58.07553
-51.40246
-53.71372
-54.44795
-49.97831
-51.29425
-50.25640
-46.76984
-50.43958
-56.75279
-57.89660
-61.45455
-62.47686
-61.59203
-54.97871
-57.50466
-58.40397
-57.69537
-60.93155
-58.27943
-65.65333
-74.12067
-72.59867
-68.56287
-69.73759
-61.05252
-61.65745
-67.88179
-70.31322
-65.63639
-62.29262
-58.82369
-53.82444
-57.73488
-60.58727
-57.53420
-57.15684
-51.18396
-51.89668
-49.38980
-56.12854
-56.67278
-56.63470
-63.06346
-56.06493
-68.13785
-70.12433
-65.14256
-51.82362
-63.87480
-65.14565
-66.97703
-58.48938
-60.66207
-59.84488
-56.90833
-59.19653
-58.25735
-61.79496
-70.55029
-70.28702
-70.09858
-70.52711
-74.12945
-70.56519
-68.95091
-67.97852
-68.65690
-77.28922
-75.70095
-68.78925
-78.76384
-78.15576
-69.05915
-70.97893
-72.29719
-75.85769
-76.80151
-77.55979
-71.39949
-73.25491
-69.58068
-73.96861
-74.74709
-73.92273
-74.74425
-78.08744
-79.05264
-76.19253
-77.08535
-77.51705
-73.88299
-79.95992
-76.42238
-73.61098
-77.19760
-80.90979
-85.04961
-86.61200
-83.77207
-86.74576
-82.82966
-78.78299
-81.51044
-81.46841
-84.37433
-85.15252
-82.82092
-84.23196
-81.41784
-81.78321
-81.47960
-83.49359
-79.64366
-81.41500
-79.34280
-75.74444
-82.85665
-84.59927
-83.76281
-83.52323
-80.63036
-79.39180
-78.16449
-77.86086
-79.74629
-74.08753
-77.94004
-74.10870
-64.89324
-72.58516
-66.87245
-70.35020
-70.91683
-62.97273
-70.97894
-69.38448
-69.55706
-69.30263
-68.00333
-73.19216
-73.74483
-69.15651
-71.32341
-78.19884
-69.99682
-73.83268
-67.10396
-70.91787
-63.84274
-60.19666
-61.38692
-67.82160
-71.64631
-68.92493
-70.40634
-71.39332
-72.83166
-67.11698
-70.57589
-67.88357
-70.47703
-66.65773
-66.34767
-64.61672
-61.79633
-68.90965
-65.79654
-62.43901
-73.02338
-60.31517
-67.10544
-67.12577
-71.60406
-67.40418
-68.85677
-69.15657
-61.81660
-63.91986
-62.54403
-64.38831
-63.46915
-61.68271
-71.95666
-62.44927
-69.76120
-65.66351
-67.56884
-64.42122
-68.50729
-61.02322
-55.18970
-51.40877
-44.28149
-53.34120
-43.48838
-42.45534
-39.41922
-39.79112
-46.70016
-44.98872
-40.94725
-47.54317
-48.18071
-42.82865
-48.37291
-52.69143
-56.24676
-50.19237
-47.15659
-50.73455
-53.14807
-54.42726
-50.05044
-50.80557
-57.74097
-52.65849
-49.40336
-53.09520
-47.59959
-44.40464
-49.22901
-49.19347
-49.52186
-49.45452
-49.14259
-47.01815
-39.86782
-40.01651
-39.00991
-42.95804
-47.18004
-44.75157
-41.66622
-40.95788
-36.77229
-45.50594
-46.95833
-40.28985
-44.60317
-39.55018
-42.95761
-38.44445
-43.75178
-50.15421
-51.95751
-57.13977
-63.73040
-54.98471
-65.96101
-64.67447
-58.23948
-55.36582
-62.71826
-62.49426
-62.91008
-60.17859
-64.52155
-64.46760
-64.55527
-58.95493
-62.47790
-65.54958
-54.14530
-65.11447
-69.47038
-70.53215
-66.32062
-73.20253
-67.58204
-62.78841
-56.22510
-53.98072
-60.73872
-63.60831
-58.54233
-62.13472
-62.62311
-55.85151
-59.51072
-58.28026
-53.38963
-53.44611
-54.38772
-49.86191
-57.68896
-50.15551
-50.01221
-48.91908
-48.75095
-47.60793
-43.65607
-47.72061
-44.94223
-47.76120
-51.13239
-48.82748
-50.14272
-47.04635
-46.89282
-47.35832
-53.83066
-49.98519
-42.21153
-42.77745
-41.49797
-48.49247
-50.41502
-41.63085
-47.88018
-49.49338
-46.06569
-41.43306
-44.48749
-48.63991
-45.40739
-47.85530
-44.52909
-43.06107
-42.15722
-45.43676
-45.73586
-45.35378
-46.74371
-45.12954
-47.51708
-45.98105
-49.92058
-48.79890
-47.91421
-45.86547
-47.90905
-47.73471
-57.44106
-62.24746
-56.19962
-49.96946
-47.01641
-51.98533
-50.18047
-51.32743
-47.26936
-53.64582
-58.10046
-66.12078
-62.37407
-58.83666
-58.32999
-62.36214
-61.97393
-53.75661
-51.55865
-56.51965
-58.25443
-60.97017
-53.44533
-56.63630
-58.17870
-62.15112
-57.46250
-54.56375
-57.66314
-59.02816
-62.19496
-58.37260
-64.18954
-58.30180
-55.32793
-50.54426
-62.89913
-59.74214
-60.33545
-56.21362
-57.35850
-65.28052
-61.13611
-62.58503
-64.63382
-60.82227
-61.47458
-56.15150
-57.51094
-54.55333
-45.83444
-57.09643
-61.56714
-61.25053
-48.37119
-50.41190
-59.12647
-51.52290
-47.90671
-54.18877
-51.71791
-52.21904
-48.30645
-59.02278
-52.80483
-47.43475
-51.85876
-50.78388
-49.23946
-43.72679
-44.94745
-54.58486
-57.36317
-50.82192
-47.97154
-58.55507
-49.39491
-47.94023
-50.58287
-53.20953
-55.08234
-56.70120
-51.96251
-57.48349
-55.09339
-57.30125
-51.28347
-58.05371
-61.03289
-58.93733
-59.81650
-68.30339
-72.80574
-65.23018
-62.18591
-73.07981
-72.12777
-71.02010
-60.74571
-62.36464
-67.11039
-69.11274
-70.70238
-62.04210
-57.84916
-57.72166
-57.43582
-50.20692
-41.57821
-44.76237
-50.27613
-49.17904
-44.17049
-36.72719
-40.63650
-38.73782
-43.88517
-46.64120
-50.43041
-61.55374
-53.21699
-59.88547
-58.60307
-54.88977
-66.95868
-66.44950
-57.03932
-57.97371
-61.43629
-64.57636
-59.88420
-57.64059
-64.67716
-62.99490
-59.15763
-61.42995
-66.69475
-67.23748
-71.26295
-70.13640
-74.25067
-71.40066
-74.72788
-68.23630
-72.75619
-72.14853
-66.09157
-73.36625
-76.12323
-72.13257
-66.38713
-67.11527
-64.18091
-70.18596
-74.16982
-66.67399
-70.05402
-64.94107
-76.38122
-69.46988
-77.26142
-75.37065
-73.69392
-69.10458
-75.97473
-78.84223
-73.76255
-68.96277
-69.28877
-70.73470
-78.14384
-72.13532
-74.48371
-70.63040
-74.24711
-75.45523
-76.47042
-75.20302
-74.00096
-77.10438
-76.86711
-75.82511
-83.47803
-75.57234
-74.52733
-73.28233
-65.93263
-69.80769
-70.08301
-68.59459
-73.34765
-70.39621
-71.71595
-74.89539
-70.05036
-67.55122
-68.07920
-61.21468
-57.26191
-59.33190
-51.77297
-61.69251
-59.06977
-55.49248
-55.84447
-63.07410
-65.17606
-66.45714
-64.23897
-66.15888
-65.48930
-73.44265
-70.57114
-70.37488
-65.36058
-61.45863
-64.06399
-54.28136
-53.64335
-55.82579
-59.96764
-59.67471
-63.05971
-66.04568
-64.42966
-68.77900
-64.90094
-72.46876
-68.64591
-68.76305
-68.12833
-64.75318
-63.47330
-65.64076
-69.69433
-68.71452
-55.22040
-57.53733
-47.97944
-49.38605
-48.03320
-48.95849
-41.57986
-44.32026
-40.28720
-41.34367
-50.52919
-52.06130
-49.61103
-54.53287
-55.80702
-60.29386
-52.63755
-51.06879
-63.69940
-68.02637
-67.27619
-61.46059
-57.17596
-61.29326
-54.44317
-56.86346
-59.26620
-55.95930
-58.88047
-55.76257
-58.55391
-67.38154
-64.71208
-64.67691
-60.28281
-60.80566
-63.40519
-57.37583
-56.94484
-60.57156
-48.06896
-60.91755
-75.63062
-67.34182
-73.60347
-77.46606
-69.09429
-69.23507
-63.42795
-62.15646
-63.42725
-59.86036
-63.68700
-59.95494
-60.10628
-62.09939
-57.37686
-55.01878
-55.57587
-51.54798
-52.09660
-52.58942
-49.17023
-47.91406
-49.06462
-50.51768
-53.68362
-43.98373
-49.50393
-56.81036
-58.97036
-56.08209
-57.51576
-48.28157
-50.98922
-61.19268
-70.94261
-68.47865
-67.57955
-73.82373
-66.81675
-66.65819
-62.51073
-66.31622
-67.74889
-57.63553
-62.32932
-59.49965
-62.45445
-63.67773
-59.04038
-62.03682
-59.61007
-55.82990
-61.11992
-62.44676
-55.87402
-56.64915
-58.06209
-62.78848
-50.79642
-55.82613
-64.32304
-63.51653
-58.41404
-58.90066
-59.36830
-60.98098
-62.99892
-60.24133
-55.92858
-53.84112
-58.53255
-44.76866
-43.69305
-51.14521
-51.40634
-52.27240
-54.56917
-50.97524
-46.33009
-50.52076
-50.94461
-48.76303
-55.82894
-54.89662
-55.25788
-55.31696
-59.41586
-57.64057
-56.65302
-57.13056
-56.86902
-56.00505
-49.68865
-46.75895
-49.30103
-49.25096
-51.74933
-52.99078
-54.80969
-59.77002
-56.05138
-57.02772
-61.29670
-54.84359
-61.82367
-68.39577
-63.09206
-55.55744
-61.23287
-57.35315
-64.54063
-66.65519
-65.25424
-59.13036
-68.27157
-66.69630
-62.88022
-57.96078
-64.66933
-63.40077
-61.91145
-72.63230
-73.71221
-70.02141
-68.31220
-71.41937
-75.81568
-68.53831
-66.58886
-65.22472
-68.05255
-66.62099
-67.75843
-68.86685
-70.30808
-74.40205
-71.17820
-79.22287
-72.20096
-70.93443
-72.21413
-72.29881
-71.10202
-61.28903
-62.22583
-61.55197
-59.71864
-64.69950
-67.82927
-63.93673
-67.97850
-66.81357
-64.67014
-65.29235
-60.30831
-60.61434
-62.40244
-58.95168
-66.19600
-61.31646
-63.51065
-62.41166
-65.95970
-63.56141
-70.19548
-58.93715
-68.59375
-70.09503
-71.27649
-68.50829
-65.60478
-68.40774
-71.81576
-66.70245
-68.00267
-71.70058
-75.95521
-76.30739
-75.32308
-74.39313
-71.53801
-74.75630
-77.70519
-77.31267
-74.66929
-75.22786
-72.34987
-70.20310
-70.76115
-74.56778
-73.30621
-70.55579
-70.69952
-67.21953
-67.58508
-73.13873
-76.22139
-73.46316
-73.02666
-68.69800
-71.45786
-68.84682
-65.52960
-64.13193
-63.59746
-68.73049
-66.88147
-66.38885
-67.89450
-72.61907
-71.70676
-72.79534
-66.62170
-69.80844
-65.80974
-71.35484
-72.63810
-71.25860
-72.10884
-72.47966
-76.95206
-70.12688
-60.48395
-62.49495
-64.84313
-58.79540
-63.52188
-58.18450
-67.10519
-68.93698
-68.83222
-67.24154
-63.62794
-69.24013
-61.92473
-61.36150
-65.34611
-62.33364
-60.05964
-61.25029
-62.11367
-65.38698
-71.93030
-67.44498
-67.16565
-66.13746
-69.37804
-65.96899
-61.19442
-60.87676
-65.94223
-75.38162
-73.21247
-73.04306
-68.79958
-67.68191
-70.19432
-69.75852
-60.98148
-61.23622
-69.90828
-59.48273
-55.81668
-61.91355
-59.45133
-60.63302
-64.29267
-58.34425
-63.75578
-66.06088
-60.14916
-62.36293
-63.48488
-64.83629
-57.93552
-57.46310
-51.71549
-53.33640
-59.97040
-59.73804
-59.88637
-64.86525
-59.93156
-53.42486
-53.83961
-55.06812
-54.82287
-61.63945
-63.23501
-66.71197
-69.79332
-66.92976
-67.94567
-64.28841
-65.33881
-60.95477
-64.41830
-66.52243
-62.74966
-57.18616
-52.82314
-56.38413
-60.23536
-59.07367
-54.22825
-50.35777
-65.83380
-65.71845
-62.22438
-53.82897
-53.95342
-59.10192
-61.43288
-62.36337
-60.73046
-61.80188
-57.76076
-61.90311
-60.11376
-62.53525
-63.67115
-60.37839
-63.20750
-66.40248
-58.58180
-62.73954
-65.32906
-54.17538
-60.97615
-58.99119
-59.97833
-62.36026
-61.15219
-57.82524
-62.53012
-63.90878
-57.77213
-54.82405
-50.76146
-53.20885
-53.83339
-48.17156
-49.35595
-48.65339
-52.56872
-58.19967
-57.85606
-56.61277
-48.26391
-61.96800
-62.23768
-62.78607
-60.88545
-65.43104
-57.93755
-60.43020
-65.38321
-69.42898
-62.18912
-62.26204
-61.09241
-63.67111
-65.06797
-66.65662
-68.71822
-67.41525
-66.68769
-69.53913
-78.91765
-65.91560
-59.65660
-62.10269
-68.15367
-68.31533
-63.40296
-61.60454
-69.79224
-71.76195
-71.66808
-68.71304
-61.16710
-56.41207
-58.47869
-59.78417
-66.73704
-62.97892
-67.17098
-57.62930
-64.12846
-72.52588
-63.40018
-60.78150
-66.44548
-58.63315
-62.51957
-65.65489
-63.17614
-63.50770
-60.08565
-59.52844
-58.59561
-51.03682
-52.32752
-46.51927
-46.10208
-48.74630
-43.15302
-46.83603
-44.74650
-50.62933
-51.63503
-53.13615
-54.88720
-57.05862
-57.84178
-63.85487
-65.49251
-62.84729
-70.85109
-72.37112
-63.87627
-62.24531
-62.04375
-59.76738
-64.93105
-66.33852
-66.73021
-70.73729
-68.89081
-66.47594
-73.72928
-64.98440
-62.58144
-60.21111
-66.89992
-64.16044
-75.26527
-73.40670
-72.52616
-69.76757
-66.63263
-69.04117
-73.00126
-80.07745
-76.80855
-74.83347
-68.76366
-62.07407
-61.57058
-59.92260
-63.91466
-62.36910
-63.71601
-59.35460
-59.26060
-60.00849
-60.85774
-64.38473
-66.93133
-70.70068
-67.44116
-68.26321
-65.64912
-57.97585
-60.59059
-61.07849
-71.26714
-68.05386
-58.68724
-63.29804
-66.37014
-67.22434
-61.96026
-65.04032
-63.99256
-62.95053
-67.55044
-74.24306
-76.64299
-71.88028
-74.31356
-77.44102
-79.28944
-81.53270
-77.51670
-82.41285
-84.20554
-78.47093
-80.71387
-87.65033
-87.72027
-78.20699
-77.99386
-81.38382
-75.54354
-72.09692
-79.29113
-80.08694
-78.96287
-76.11509
-78.11848
-82.19992
-82.10226
-86.02735
-79.54689
-80.48459
-76.63863
-79.25047
-79.05493
-71.90744
-75.30429
-73.50238
-79.24959
-75.56881
-73.55358
-63.28007
-68.60475
-71.55088
-71.02417
-77.42665
-83.34970
-75.00346
-81.73317
-75.57014
-74.75782
-73.11965
-72.11758
-75.65870
-79.82853
-82.34671
-81.30590
-82.82343
-87.25297
-75.62534
-76.79581
-80.43748
-88.45319
-87.44947
-84.54690
-87.23439
-92.76446
-89.28973
-84.24444
-85.96643
-81.46794
-88.43797
-89.89216
-87.51880
-87.67016
-82.05599
-95.81770
-98.90066
-93.76667
-92.71510
-91.26379
-90.32701
-91.78480
-92.37348
-94.52580
-89.26056
-87.90047
-90.71570
-89.53890
-95.29887
-90.26444
-94.29513
-94.98104
-101.92364
-102.78890
-104.48964
-103.65537
-99.07470
-93.57857
-93.23711
-85.61165
-90.90075
-89.03484
-88.64499
-92.89602
-88.12771
-87.24741
-91.55488
-83.42679
-81.22645
-85.10187
-87.46267
-87.42055
-79.77642
-75.59936
-81.64670
-88.18437
-84.67110
-89.51490
-91.93613
-93.12615
-95.16434
-89.92094
-95.75050
-88.52742
-84.09613
-83.04085
-85.85453
-88.05332
-77.80435
-80.22277
-80.79035
-90.43054
-88.26713
-84.26480
-81.90680
-85.03465
-81.76896
-81.66122
-86.10965
-89.07676
-85.79191
-80.52445
-80.62991
-86.64660
-79.26098
-72.39460
-73.24083
-76.63552
-73.57873
-72.60501
-71.64046
-71.81830
-78.56540
-74.93568
-72.84976
-67.86489
-66.76678
-68.48381
-71.44757
-77.40820
-71.88587
-75.13724
-69.28894
-69.03707
-67.45930
-68.54468
-60.34879
-63.82819
-70.87021
-67.10353
-73.65321
-69.78771
-73.10422
-70.66986
-72.73104
-69.53335
-66.33807
-70.16291
-65.17353
-64.38583
-69.78796
-68.75053
-68.86470
-68.77401
-71.80082
-73.49272
-76.90261
-82.27842
-78.46636
-68.97244
-72.07848
-72.91637
-77.69353
-74.35282
-81.11412
-83.18536
-77.80832
-78.47432
-74.09449
-75.39577
-81.62376
-89.27133
-80.63606
-74.22739
-78.51843
-83.73492
-81.95005
-71.98231
-74.94069
-75.87828
-68.93193
-71.11873
-76.24636
-73.33517
-78.26457
-79.12134
-74.80382
-71.63172
-69.53289
-69.40868
-73.35590
-69.06386
-77.61303
-75.75575
-77.72694
-76.30304
-75.94691
-71.83516
-67.82885
-67.18269
-66.04807
-66.65550
-70.59623
-75.08470
-70.96904
-68.55673
-70.55720
-72.11783
-66.55869
-67.85071
-71.10955
-72.15895
-66.51523
-67.55181
-70.56813
-73.36735
-72.27949
-73.56370
-70.55107
-78.77720
-75.97025
-78.38523
-76.30354
-73.18567
-78.23734
-73.63711
-78.34329
-82.74291
-86.45647
-82.18997
-73.14415
-73.05712
-74.47066
-73.91395
-74.15507
-77.16495
-76.68085
-82.83563
-73.47880
-79.29505
-69.00139
-67.82898
-66.91001
-69.49686
-69.38969
-62.66792
-66.92076
-71.27787
-68.37955
-59.75713
-67.30954
-71.25556
-71.50297
-70.44241
-64.35212
-65.72400
-57.40359
-68.88614
-69.19161
-72.80980
-71.54377
-74.04790
-66.95861
-62.56253
-62.26660
-72.01391
-66.74295
-66.50546
-62.38084
-66.83997
-67.02181
-63.17140
-63.10151
-64.41925
-67.39333
-70.38458
-65.81906
-57.79091
-59.77711
-65.66249
-67.26914
-63.06369
-64.24751
-61.04787
-61.46293
-55.75031
-63.82258
-68.05066
-65.92455
-73.26314
-76.37265
-77.93984
-73.02075
-72.01955
-72.11989
-72.82678
-73.88555
-76.82350
-71.66305
-73.29980
-69.53565
-66.01752
-64.55399
-63.72652
-61.11676
-61.38408
-64.14681
-62.30828
-62.73935
-58.02692
-66.66501
-70.16556
-66.44311
-63.18016
-58.04350
-53.57972
-58.90560
-59.49215
-65.06182
-66.33610
-65.30780
-68.25395
-61.55640
-64.58552
-68.22343
-66.55474
-68.78530
-67.21474
-71.60770
-68.06091
-73.65486
-72.79557
-69.51425
-71.86666
-68.87963
-64.63350
-62.03290
-63.22384
-60.13892
-69.82339
-64.34824
-62.46972
-66.61003
-67.28191
-62.96322
-60.08185
-57.54613
-63.63402
-69.38580
-65.69104
-71.63646
-64.57146
-67.69481
-67.60342
-61.67167
-64.61667
-70.38199
-51.98564
-56.22817
-65.92651
-66.53334
-60.10220
-59.02254
-59.22653
-62.24314
-64.57812
-70.12042
-64.21695
-67.68644
-69.69245
-69.59150
-73.48126
-73.06320
-73.13086
-67.36267
-65.17346
-69.22378
-56.28340
-58.12706
-57.36286
-64.57697
-64.18138
-69.00975
-63.78263
-61.69622
-72.23614
-63.36794
-62.42570
-60.66212
-59.74187
-67.93125
-67.76440
-72.25887
-68.45920
-67.87406
-61.22561
-54.30050
-61.30310
-65.71839
-60.97767
-66.78666
-62.76582
-60.99024
-60.83538
-60.12810
-60.63166
-56.06620
-59.17406
-62.83447
-61.43072
-58.92914
-63.04217
-67.06553
-61.44849
-57.37800
-62.46371
-60.16830
-61.85226
-58.41441
-59.35449
-63.72907
-62.22515
-59.48428
-54.12332
-57.42632
-61.63144
-62.90511
-67.82447
-69.87438
-63.22952
-69.05218
-75.11478
-70.97362
-68.65919
-65.22962
-70.95669
-59.85742
-62.57077
-64.18547
-67.37820
-66.78326
-65.52929
-74.01184
-71.57635
-73.43228
-71.65086
-71.30775
-74.88991
-63.32551
-64.66421
-71.34303
-68.40541
-71.01862
-63.47940
-60.53415
-65.85251
-68.17626
-66.99755
-68.52731
-70.21783
-66.82596
-69.05118
-71.25044
-68.93078
-72.46975
-71.58797
-63.25357
-58.29059
-62.56525
-64.79601
-65.28215
-71.84708
-75.76545
-69.19677
-67.53140
-71.55856
-74.29077
-78.58890
-76.03793
-77.28445
-78.35382
-75.58631
-81.39084
-78.12751
-77.28260
-72.53781
-78.96343
-81.33742
-75.55686
-81.42716
-83.80523
-77.07606
-75.26408
-74.46066
-72.85879
-72.97278
-70.94444
-70.39747
-76.24682
-73.07284
-80.83003
-67.43840
-71.60875
-75.14714
-74.56991
-80.14794
-79.78424
-73.66426
-74.99668
-74.66236
-70.30685
-68.06953
-72.89442
-68.72702
-73.60229
-72.59961
-66.90492
-65.51456
-65.76885
-68.97961
-68.88594
-71.84018
-77.47050
-72.93652
-77.51752
-69.04543
-82.31406
-82.79423
-81.94853
-79.38909
-86.50563
-89.41480
-88.20852
-83.72601
-84.24111
-86.10965
-90.29906
-86.75634
-88.25174
-83.47940
-91.02012
-93.11336
-92.32272
-90.99042
-93.72603
-87.21052
-89.84063
-92.63877
-83.27982
-85.59579
-86.64429
-89.38919
-87.00648
-85.12619
-81.30550
-76.76108
-76.82528
-78.30153
-81.28601
-85.21575
-82.41610
-76.26673
-75.92153
-82.18383
-75.66806
-83.22048
-83.63710
-80.57303
-76.69035
-73.03072
-63.49385
-65.97753
-76.16383
-76.31903
-63.09610
-65.68000
-62.89369
-63.90849
-60.37111
-61.41060
-69.10131
-69.54508
-66.51774
-70.99259
-70.44519
-71.29143
-67.65129
-63.85814
-67.38020
-66.29808
-64.59247
-61.31983
-68.83346
-66.79094
-68.54972
-70.43456
-65.02816
-61.56762
-58.18810
-63.14697
-63.78287
-68.61718
-68.27340
-69.63762
-64.48698
-59.06988
-60.58732
-64.21485
-64.77828
-64.43424
-70.49181
-70.09988
-70.99279
-66.27526
-78.19956
-70.11764
-63.86725
-59.25390
-62.39489
-63.59252
-67.39675
-67.24341
-63.48630
-73.44270
-73.62133
-73.66959
-68.21953
-70.17167
-64.04420
-62.67175
-63.51458
-63.10807
-62.16157
-55.98434
-56.94771
-55.95476
-54.86458
-52.71614
-56.91642
-56.55817
-54.90681
-63.48457
-59.48437
-57.22727
-57.85066
-59.35028
-58.41794
-46.90065
-46.96161
-45.94719
-48.76192
-50.51545
-41.60468
-40.77742
-43.79744
-44.78920
-43.45341
-48.11135
-45.88664
-34.92463
-39.19042
-41.88402
-36.25425
-38.96157
-34.60800
-34.63246
-40.59406
-37.02468
-31.99717
-33.98695
-38.90545
-48.73255
-40.33922
-36.75871
-42.01987
-44.79593
-50.83634
-50.24684
-47.59498
-43.25845
-47.23939
-49.52972
-41.06241
-39.49110
-38.83019
-40.08540
-50.06126
-46.77955
-41.18735
-45.98531
-50.49211
-51.30396
-43.71172
-45.68204
-50.20232
-49.71029
-51.04350
-56.92186
-54.10751
-53.02956
-51.90487
-57.70434
-53.21923
-51.18768
-50.30439
-49.34233
-49.91164
-43.23443
-39.41977
-39.11436
-43.70469
-34.87482
-32.57326
-34.76900
-28.88189
-33.86694
-37.82508
-30.05173
-33.15591
-42.89595
-37.00684
-38.00683
-32.65366
-28.84846
-32.23899
-37.06960
-34.91930
-38.75027
-40.68401
-42.56935
-44.58923
-48.99792
-56.11552
-46.94360
-47.62935
-43.36958
-38.99303
-37.42757
-39.64694
-44.74552
-47.03643
-43.38324
-40.97409
-40.40287
-43.75628
-36.08840
-32.74516
-35.32883
-32.73179
-32.64221
-37.03440
-39.47188
-34.49413
-43.33012
-45.54151
-40.28335
-40.46627
-40.66390
-42.42742
-37.95629
-40.05972
-39.33056
-39.96271
-43.09615
-43.15106
-39.84547
-39.54685
-37.56999
-39.44496
-34.89681
-39.13872
-33.89861
-43.10648
-49.69093
-52.85857
-55.22826
-51.23552
-40.91246
-41.16176
-44.44583
-50.91553
-45.04514
-47.07866
-42.21366
-42.03705
-44.04069
-38.18423
-41.84241
-37.04561
-41.76286
-41.94960
-40.74792
-38.15165
-33.69934
-32.58808
-31.89872
-33.81630
-38.05414
-37.22326
-42.28783
-28.27338
-27.45931
-26.00269
-25.54305
-26.18538
-22.83670
-30.02136
-31.27020
-29.14629
-32.72736
-28.58524
-35.24545
-32.07612
-40.75744
-46.39326
-42.83576
-42.96631
-38.69472
-38.44630
-47.06682
-42.51084
-36.11740
-33.64054
-36.45746
-37.29148
-37.54861
-43.89668
-40.11887
-45.17231
-44.25956
-50.37241
-48.78725
-44.67697
-42.14425
-39.27750
-46.41652
-37.08213
-31.61362
-39.21895
-40.75954
-45.65935
-37.81266
-39.11256
-43.77051
-41.41476
-46.78767
-36.51736
-39.69433
-44.25878
-40.97893
-45.93277
-49.38576
-47.15009
-48.28856
-50.62357
-44.06416
-43.00589
-39.57580
-47.18487
-48.67114
-54.44361
-49.75783
-45.53380
-45.89599
-40.80420
-46.69207
-49.18581
-50.10463
-48.45919
-43.30783
-38.81820
-37.79729
-41.07419
-36.35757
-38.56067
-38.28628
-47.41859
-44.56267
-43.42773
-42.00387
-32.92487
-32.55341
-37.02054
-37.33369
-43.70860
-44.23295
-38.78247
-43.35582
-36.51889
-40.81888
-42.50276
-38.59335
-36.76448
-44.53749
-44.68696
-46.81812
-46.46934
-45.94658
-43.98843
-43.52248
-44.56596
-40.34246
-43.41193
-41.15449
-34.56741
-33.29246
-39.43029
-50.64098
-47.51023
-40.95674
-38.06765
-43.83881
-42.78055
-37.99166
-34.05598
-33.49542
-32.32689
-30.68610
-29.67525
-42.05922
-35.03403
-39.22754
-40.57497
-33.24065
-28.57321
-33.64445
-29.51166
-33.44392
-42.08181
-38.79878
-37.86660
-37.12120
-37.88084
-33.78787
-40.52455
-41.75074
-38.74661
-44.76641
-38.01778
-39.62311
-41.24879
-41.66182
-48.36418
-44.01687
-46.72557
-48.57709
-38.76740
-36.02854
-44.92044
-42.49723
-35.75380
-33.59510
-38.66721
-33.30503
-35.17942
-43.04133
-43.04364
-48.54712
-39.85629
-48.48324
-47.44982
-44.77274
-44.69211
-49.88620
-49.82800
-48.34776
-49.20169
-44.75920
-46.09337
-42.58773
-51.41980
-50.93508
-49.90830
-48.13899
-47.29256
-42.50483
-46.12045
-49.27381
-44.82755
-34.46912
-41.75314
-36.55634
-32.52388
-40.44536
-35.03727
-38.95373
-37.26596
-34.46509
-36.08457
-35.48576
-35.33043
-42.27964
-39.35603
-39.23169
-31.66696
-38.74521
-32.44815
-29.21044
-24.80924
-27.61357
-34.54360
-32.76226
-37.12105
-33.40052
-38.06478
-40.23818
-38.81103
-34.53570
-36.16763
-39.72175
-40.62710
-43.53047
-42.49481
-43.37176
-42.88816
-39.48904
-44.36271
-47.61022
-54.23068
-39.29181
-39.11487
-35.41479
-34.38805
-36.82464
-33.98404
-38.94279
-45.53788
-38.45111
-38.85935
-39.38567
-52.25248
-51.72787
-44.06255
-39.14295
-40.98799
-45.09422
-39.62563
-43.49616
-44.67925
-42.60889
-47.91852
-44.56830
-46.33023
-47.26641
-50.99339
-50.38266
-50.86682
-51.07811
-51.42720
-61.21639
-61.76670
-60.03340
-57.97681
-52.39862
-54.37663
-55.31748
-61.29304
-50.42372
-49.93756