-13.97646
-14.25641
-8.84103
-19.01806
-16.46430
-14.98430
-12.22929
-11.60605
-7.69354
-9.34688
-7.05154
-12.05312
-11.01825
-10.67811
-17.73789
-12.65923
-9.01869
-8.92462
-11.44046
-9.04645
-5.14149
-10.90642
-4.02251
-10.75903
-7.57183
-9.21025
-12.86178
-9.34605
-12.85221
-8.54068
-11.81403
-6.19822
-15.12243
-8.70475
-6.21506
-9.43454
-11.10281
-15.78075
-14.80960
-11.44086
-13.66077
-19.23439
-10.48827
-2.61412
-3.58360
2.13651
-2.99182
-4.49598
-7.80561
-2.18386
-6.51640
-6.31637
-3.76078
-6.88376
-5.04004
-9.20435
-4.29344
-9.83904
-16.91791
-8.18148
-4.79270
-3.72761
-1.52471
-1.02928
-5.71981
-4.87583
-1.69046
-1.70472
-3.96987
-3.48199
-2.68357
3.25874
-2.30318
-1.59244
-4.59211
-2.85366
-5.55256
-7.47626
-6.55049
-7.75478
-7.31552
-6.30779
-15.22122
-9.29819
-8.27215
0.47401
-0.05117
0.79657
-3.44413
-0.74134
-4.58900
-10.68568
-12.17196
-14.18329
-6.61243
-15.53272
-14.17081
-12.83723
-14.50205
-10.03234
-13.01867
-20.88130
-13.33910
-16.79408
-17.58425
-19.97732
-16.42024
-24.69833
-19.17107
-16.79511
-15.96694
-14.14820
-10.38586
-9.52986
-12.54375
-14.13271
-10.87838
-13.00996
-14.11892
-5.26269
-12.09144
-11.35616
-14.28164
-18.28105
-11.50316
-17.06283
-16.16705
-15.14820
-15.24623
-17.07667
-17.92474
-20.18538
-17.20364
-23.03121
-23.47494
-15.07744
-21.57590
-15.54035
-14.34795
-22.04977
-18.53419
-24.62397
-23.91135
-24.18886
-23.42455
-19.39109
-22.60127
-19.14350
-20.63026
-18.34804
-11.22922
-15.01838
-13.19098
-18.34336
-11.99404
-15.41114
-16.00243
-19.24687
-18.28763
-16.10007
-15.03904
-14.19233
-21.37176
-15.67477
-14.45212
-8.86551
-9.51777
-13.89515
-14.27953
-20.05880
-17.31172
-13.79835
-11.54572
-4.39010
-9.13694
-12.24826
-18.27329
-12.38064
-14.49541
-12.58530
-13.06225
-15.36834
-11.18257
-13.24350
-14.11177
-10.56140
-12.06757
-11.44817
-9.20351
-3.78030
-9.36260
-5.76965
-4.48290
-5.34939
-8.43252
-9.72718
-8.26805
-9.43673
-10.45315
-7.79401
-8.33123
-6.63228
-14.94794
-15.28283
-7.35660
-15.28999
-12.30846
-9.59197
-9.97903
-5.36632
-8.75004
-9.32440
-11.83749
-16.46511
-11.84932
-12.32796
-5.87665
-9.38640
-12.01202
-13.33746
-15.04876
-14.03583
-13.44632
-4.29104
-5.91578
-8.04335
-15.53579
-14.64290
-15.42807
-8.57008
-7.53734
-7.68806
-10.27496
-11.91449
-12.71369
-9.53490
-13.19750
-12.99869
-8.17660
-9.35963
-13.94391
-8.22808
-7.33300
-6.71585
-11.59610
-13.38865
-9.53008
-6.70742
-11.68570
-17.20973
-14.19063
-7.09025
-14.56079
-4.58384
-11.87313
-4.92691
-8.62256
-6.27573
-12.07787
-8.64442
-10.36540
-6.80170
0.09335
-3.21269
-3.57804
1.72464
0.01326
-6.49780
-1.54184
-0.61467
-5.97101
-6.45379
-3.37206
-1.80765
-6.16145
-4.36213
-9.41254
-11.09284
-3.66288
-9.93525
-10.84589
-10.12141
-10.75387
-9.02286
-10.23107
-4.68092
-10.51345
-6.37245
-1.15525
-3.59246
-6.79962
-7.12204
-3.88614
-1.98766
-7.64131
-10.39934
-5.01732
-13.96780
-14.04237
-11.77027
-15.01109
-16.22419
-9.37369
-5.47242
-8.04176
-2.21492
-13.54895
-14.41939
-12.36182
-5.44267
-1.41918
-5.56951
-1.83324
-4.45298
-8.48293
-2.30403
-2.02866
-4.44744
-1.77803
-4.99143
-2.47319
-6.55836
-2.32172
-5.24578
-6.38857
-6.89365
-5.86577
-9.78308
-8.93754
-9.07933
-6.37940
-10.76405
0.42200
-0.49827
2.28818
1.58668
-0.93993
0.19557
-3.09724
-7.11170
2.01833
-1.99059
-1.80384
-2.30343
-3.05672
-3.82225
2.68808
3.85156
5.17912
4.35723
-1.73142
3.47623
-1.40110
-1.04652
2.03403
0.73222
-2.82485
-2.67125
1.63767
1.88284
1.46978
1.62871
0.74552
-3.79907
-8.11878
-3.43074
-4.72964
-9.19850
-5.19869
-4.96451
0.54777
-5.40101
-5.44528
-0.33949
-5.04661
-6.87087
-4.81835
-4.89977
-5.30070
-3.16827
-5.60523
-8.77331
2.81344
0.51573
-3.63276
-1.62615
-8.15216
-1.03614
-5.12302
-4.83432
-4.20971
-7.88970
-3.57334
-9.17223
-4.23655
-7.51626
-7.84934
-8.29952
-5.13915
-7.31904
-7.76812
-9.32385
-12.04786
-12.82769
-15.94337
-7.33343
-8.89149
-13.67028
-12.62855
-15.25183
-14.79720
-18.63198
-15.62914
-13.39366
-9.46122
-15.83075
-13.38089
-8.56787
-13.01727
-14.12987
-10.48110
-13.60290
-13.35892
-16.11444
-17.83721
-23.62820
-24.14885
-25.09262
-20.72522
-19.62351
-18.19932
-24.99498
-22.35925
-19.29590
-18.58716
-22.12511
-21.29349
-19.93992
-22.75980
-18.43760
-22.82426
-19.94756
-19.69345
-18.59468
-15.63088
-13.66926
-13.55525
-15.61602
-12.62481
-16.98233
-14.00544
-11.16506
-9.81370
-9.84805
-7.17301
-10.68351
-17.97005
-12.82375
-12.79046
-7.89409
-9.76740
-8.84015
-6.37150
-7.35924
-3.87985
-7.11819
-9.46756
-6.30162
-5.76280
-4.03228
-6.27724
-6.42274
-15.71667
-9.23419
-4.31914
-5.60035
-7.68901
-15.95534
-9.46735
-11.65615
-11.78628
-7.93538
-9.76307
-5.25758
-9.87039
-5.04966
-4.63535
-5.01155
-8.76277
-14.10612
-8.10501
-3.49815
-2.52915
-3.61880
-5.68224
-4.34297
-7.53003
-5.96706
-3.55211
-3.90450
-5.10076
-6.06391
-2.98108
-6.63447
-4.21604
-1.85199
-2.48176
-5.57106
-8.02237
-0.68853
-1.64035
-7.16541
3.13309
1.63507
3.54775
-2.33860
6.02409
2.37026
2.77802
-2.74429
-14.43797
-2.59169
0.75257
-4.47366
-2.37388
-1.78138
-0.76071
-3.78681
-0.24987
0.13820
-0.04331
-2.62494
0.29593
-9.95407
-13.41038
-5.75762
-2.25755
-0.46776
-2.74156
-0.58682
-4.42027
-4.07991
-4.42168
-15.82875
-13.13242
-11.69223
-9.23614
-5.42786
-8.08345
-7.84328
-14.23684
-7.65620
-14.43771
-10.28748
-10.02330
-7.13084
-8.51265
-2.73388
-4.91333
-2.60818
-10.58227
-6.98319
2.39717
-2.69502
-2.52511
-8.57676
-9.50422
-6.49197
-9.90674
-8.85359
-7.02810
-9.14426
-6.97055
-11.11424
-10.48799
-4.32545
-11.46349
-10.26808
-10.39892
-3.01314
-7.30211
-11.88397
-8.62169
-2.82241
1.36105
-2.98532
-8.68321
-5.18522
-0.48067
0.52756
-1.10287
2.49312
6.65492
4.10570
5.00464
-0.83524
1.66348
-4.25262
-2.84146
-0.99817
-1.06471
-7.20871
-7.13745
-7.46716
-12.48556
0.43735
-4.79162
1.68055
0.27728
-2.86549
-6.18511
0.89516
-5.76641
-0.29785
-5.61465
-2.89826
-3.31415
-4.45114
-4.56795
-7.93270
-5.72301
-10.59083
-9.89520
-10.93627
-11.20127
-16.55494
-15.72459
-16.28455
-13.24507
-5.77295
-7.95856
-10.20074
-8.28543
-8.72298
-10.40612
-5.24619
-13.20195
-13.11662
-16.02069
-7.62974
-2.55332
-8.34096
-12.26962
-14.60839
-13.75874
-19.28388
-18.86249
-19.10980
-11.00232
-12.53901
-10.82531
-6.06445
-9.31591
-6.85387
-6.72331
-4.66193
-6.72532
-2.74416
-0.94779
-6.06592
-7.79967
-16.57584
-11.14604
-16.78589
-14.56751
-17.67208
-15.84970
-7.06313
-12.62987
-4.86014
-6.22529
-8.01336
-10.90823
-14.43433
-11.14228
-12.41791
-10.84616
-9.91690
-10.99943
-9.55509
-11.15909
-12.11684
-12.46236
-14.63926
-13.04728
-13.74828
-9.96647
-7.41264
-11.24562
-10.62078
-11.93686
-9.86955
-10.23899
-15.11416
-9.25763
-4.80052
-12.08740
-12.82136
-12.58637
-13.51207
-18.14793
-14.76913
-19.24010
-22.70486
-18.48268
-22.35532
-18.50233
-16.91803
-17.34923
-18.66094
-20.09896
-12.31634
-16.00128
-18.68941
-12.69045
-13.14719
-13.69204
-12.47336
-14.35683
-14.14107
-16.94309
-22.06722
-27.38689
-28.94966
-26.15787
-17.16806
-23.77634
-21.68406
-25.65319
-18.79557
-22.63272
-29.14554
-23.10485
-16.18256
-21.56161
-19.68315
-20.02665
-11.75237
-11.63552
-11.04463
-17.35238
-17.70334
-12.24390
-8.55175
-14.36038
-16.87823
-11.72359
-9.80406
-11.56653
-9.59513
-6.59134
-9.47461
-7.79516
-7.12446
-11.37840
-16.68178
-10.83992
-9.90308
-10.35744
-12.23992
-11.85844
-12.91602
-12.10621
-15.98742
-12.20561
-14.54016
-16.16281
-16.16936
-18.47629
-17.57503
-18.73137
-13.28771
-10.94484
-9.64905
-10.17328
-9.46954
-8.49429
-17.56426
-15.91768
-17.38210
-13.54760
-12.24621
-13.26578
-21.85614
-15.59960
-18.05328
-17.32212
-19.58890
-21.03022
-14.64038
-19.89573
-24.21386
-18.71845
-18.62191
-17.04616
-28.22182
-25.21979
-27.12946
-21.91932
-22.89966
-19.84378
-16.48260
-13.34547
-16.39052
-17.94461
-19.06031
-19.91167
-15.74057
-13.76928
-16.67447
-15.62486
-11.72486
-9.47912
-11.93318
-13.21284
-6.11697
-14.23354
-18.15581
-19.60714
-22.54367
-20.27230
-12.63195
-12.32143
-18.28522
-16.82644
-13.31043
-15.93743
-17.47342
-13.07910
-11.68434
-12.43686
-16.16014
-13.34026
-9.87917
-6.49430
-12.25541
-12.03096
-9.63722
-6.48437
-12.02566
-14.79958
-11.46307
-12.40567
-7.92153
-11.27310
-7.33342
-10.52059
-11.24083
-14.51553
-10.60579
-4.23465
-9.51956
-8.10207
-5.71769
-3.18150
-13.39302
-14.31221
-11.56307
-12.48683
-10.99757
-7.53850
-10.91164
-12.06557
-17.36372
-13.53823
-15.57183
-13.37388
-12.13769
-13.46459
-15.50008
-13.26066
-10.64889
-9.46002
-14.07480
-13.90806
-16.03361
-12.42292
-15.05732
-11.60373
-15.42511
-11.53436
-10.98658
-9.58601
-12.75918
-13.10113
-13.85371
-12.39467
-13.93812
-12.64559
-13.25246
-18.94506
-14.56826
-13.93788
-13.89411
-10.66337
-12.08477
-7.08621
-1.75876
-9.16028
-8.95435
-5.09670
-7.43353
-8.12767
-8.80729
-6.63741
-6.44128
-7.59674
-6.51863
-4.30559
-6.28959
-3.93642
-6.46756
-4.41235
-1.97976
-0.17474
-7.80332
-13.36524
-7.59769
-6.79511
-8.24928
-6.38841
-5.01798
-8.28595
-3.24206
1.32950
-1.67767
-7.30335
-2.62622
-6.91613
-3.16364
-4.70681
-7.97659
-1.97819
-4.92325
0.38784
-2.03021
-4.97380
0.31858
0.29077
4.07178
0.95723
-2.00986
-7.12351
-9.77785
-9.83463
-7.07541
-4.98099
-0.23093
-5.01991
5.61878
-0.30462
-6.46505
-3.99584
-4.39246
-9.62072
-10.66077
-4.39528
-2.37859
-7.28286
-0.63225
-5.27816
-5.00187
-10.52473
-17.72917
-11.23221
-11.22088
-7.50734
-15.58867
-13.74544
-11.68591
-9.49298
-12.88687
-6.74981
-15.75978
-12.91028
-13.30899
-14.54760
-17.39404
-14.54664
-10.50984
-11.13273
-16.44779
-20.47973
-18.05132
-12.96280
-14.14924
-11.53792
-10.91849
-12.48070
-18.59693
-20.35398
-11.35825
-14.19474
-16.08419
-15.20756
-18.32968
-17.51222
-19.05800
-20.82714
-13.84482
-16.37529
-21.65313
-21.95701
-16.23460
-13.73089
-15.49288
-17.32502
-16.94117
-22.59423
-19.70768
-20.31105
-21.25458
-21.61163
-20.66194
-17.86555
-17.00568
-17.30314
-16.40629
-17.57067
-10.49053
-9.46463
-19.27854
-13.03132
-10.93135
-4.38904
-7.35095
-9.17964
-7.02050
-5.50710
-10.90955
-11.19483
-9.77116
-13.96076
-6.95957
-8.51105
-10.37806
-6.86195
-7.76129
-5.76942
-5.45887
-4.46855
-5.43711
-3.50759
-6.48712
-8.52061
-7.83215
-2.04524
-3.30585
-1.95263
-1.58192
-7.95733
3.93093
0.21289
-3.36481
-2.46612
-6.63424
0.57790
-1.06472
2.70949
-3.71338
-2.48242
1.23124
-6.57191
-4.37458
-3.33047
-2.34026
-3.88269
-5.68277
-1.18064
-1.81680
0.46311
-0.19329
-2.45200
-0.56203
-5.74194
-1.22817
0.36862
2.93198
5.00624
3.65877
4.17015
5.23218
1.50047
0.92181
2.51533
5.74695
9.25165
-1.12831
-1.62461
1.50497
5.87224
3.53649
-8.35905
-2.90538
-0.75998
2.14981
3.89163
1.59293
-3.11535
6.64110
5.44716
8.50107
6.82118
4.56816
-0.91070
-2.09383
-4.19442
-7.66531
-5.72556
2.06377
4.78195
-4.14885
-5.13981
-6.07552
-4.82791
-5.81958
-2.06528
-0.53888
2.97405
2.88947
2.04539
-3.52780
-4.57009
-4.63497
-6.74057
-6.31286
-4.04940
-4.86496
-7.40746
-6.63924
-14.20544
-14.24350
-18.92934
-13.36048
-8.21758
-13.83595
-4.79195
-7.05445
-12.81722
-6.68845
-8.02373
-5.67647
-7.05177
-6.70598
-7.44128
-7.95957
-7.84862
-13.15203
-6.47752
-8.59659
-10.41348
-10.06913
-17.75624
-22.62283
-17.85568
-22.19630
-21.08760
-25.29977
-29.80764
-27.26078
-26.76496
-23.15196
-27.60995
-21.75989
-25.55780
-23.43900
-20.56610
-28.45158
-28.61513
-29.28123
-29.33194
-29.60484
-29.03563
-30.30335
-25.58019
-18.47539
-20.31675
-12.38106
-13.70802
-15.04425
-21.01017
-19.53551
-21.87296
-23.95285
-27.34336
-22.62700
-20.66548
-18.65318
-22.44365
-17.68090
-15.51067
-23.56968
-21.52715
-16.99802
-21.70532
-22.24634
-17.55885
-17.30265
-21.21914
-15.12133
-22.85406
-20.05757
-30.81878
-27.68048
-26.45902
-27.71969
-30.88932
-29.28090
-24.93584
-24.76509
-27.74837
-30.57685
-27.37645
-28.15023
-24.31875
-28.47955
-23.40971
-25.87371
-20.37228
-24.82394
-30.30205
-27.79592
-32.39858
-35.06130
-33.88548
-37.96383
-36.30990
-35.65980
-32.72684
-32.98516
-35.10627
-41.55213
-46.31693
-44.59648
-36.15509
-39.55874
-39.76062
-30.30173
-29.99769
-38.90110
-31.15980
-32.35532
-33.19642
-31.25679
-25.80120
-29.39880
-28.39883
-25.04846
-17.93383
-31.33549
-33.27884
-33.65478
-36.66100
-32.28186
-33.34667
-38.95299
-33.21974
-36.84444
-36.68057
-38.02540
-41.89091
-42.39221
-42.11967
-38.94215
-39.30742
-31.24559
-29.52125
-30.54328
-28.00944
-29.43857
-35.15146
-32.74634
-32.76283
-33.44625
-29.57846
-32.80561
-29.77909
-34.85971
-30.04051
-25.98171
-30.47534
-28.82897
-37.96079
-33.60213
-24.78767
-24.47182
-29.00022
-28.69933
-27.23171
-27.51371
-24.48047
-28.31012
-28.88265
-27.63263
-26.86873
-26.21118
-23.96623
-19.02216
-21.13915
-19.04740
-16.61669
-18.71300
-19.25565
-23.81382
-22.51224
-20.64833
-19.87915
-14.95321
-18.42713
-23.37491
-21.61461
-25.91848
-26.35435
-18.95524
-25.11649
-20.67238
-19.79386
-19.20361
-24.22697
-26.70720
-17.62199
-22.69439
-17.85820
-19.30269
-18.56514
-22.94202
-26.03198
-28.10327
-26.21691
-20.39345
-17.61878
-20.97109
-24.99532
-31.17637
-26.15615
-21.95277
-19.95155
-19.65822
-24.20824
-25.49512
-25.27218
-18.54306
-15.97962
-14.93821
-16.89044
-11.63293
-11.31449
-22.01662
-13.76940
-13.15892
-8.90432
-9.88361
-3.40230
-10.93726
-18.12659
-21.15661
-12.25264
-12.84182
-9.08669
-12.15249
-9.21249
-1.45495
-9.34659
-9.53048
-9.46886
-12.65200
-7.96512
-12.16135
-4.99241
-7.27413
-7.98910
-3.17132
-11.10361
-9.82954
0.49028
-0.80460
-0.22864
-4.45274
-8.79440
-11.39888
-9.59093
-3.77552
-7.77195
-6.45626
-1.89806
-7.62101
-7.30770
-10.86736
-6.61138
-7.39257
-4.11318
-2.05610
-1.99236
-3.52924
-6.87641
-3.12552
-1.68631
-0.10972
0.65912
-0.40771
-4.87568
-2.33516
-1.92533
-3.40101
-0.70097
1.35479
-4.60001
-1.25058
-3.71914
1.67723
-6.24132
-4.12424
-3.76674
-4.99228
-7.57206
-5.94699
-5.06074
-3.70984
5.41534
3.17742
-3.19747
-6.30186
-4.90768
-5.35863
-6.21537
-4.37745
-4.86585
-2.86474
-5.93099
-3.15176
-4.79838
-3.62621
-1.75498
-9.06133
-5.52381
-4.22526
0.35436
-6.84819
-5.78805
-5.51887
-10.84920
-5.44780
-6.81255
-5.39119
-2.76559
-2.72189
-10.44132
-7.16984
-1.54272
-6.21541
-6.58323
1.10451
-4.11666
-11.98541
-7.72052
-2.62842
-10.26790
-14.47592
-5.68054
-1.47390
-3.20356
-1.25949
-0.25378
-3.38083
-4.96315
-0.85337
-6.28583
-8.07545
-7.28466
-7.39589
-8.69600
-8.52084
-4.51197
-1.03233
-1.89870
-10.35600
-9.85611
-4.21213
-10.20593
-8.62993
2.33233
0.18144
-3.36771
4.12429
-2.75479
-5.37337
-5.48067
-4.52132
-1.28386
-6.24679
-4.39451
-5.21060
-4.63742
-4.06986
-4.70014
-1.75746
-1.59670
-0.18439
1.01753
0.17795
-2.32469
-2.36594
0.51709
-1.66039
-7.62747
-8.33098
-5.23275
-8.29673
-5.53332
-2.67407
-5.03699
-3.11492
-9.87440
-3.89410
-2.29634
-4.42174
-8.97420
-6.98122
-4.37352
-0.89475
-8.83222
-2.70769
-9.00280
-14.17899
-14.70293
-18.74990
-21.68941
-25.55417
-19.97926
-20.57232
-8.60008
-6.36309
-17.00171
-8.08987
-7.44882
-9.17283
-11.21425
-12.98232
-10.68738
-11.37160
-9.54597
-17.06431
-13.84280
-18.31329
-15.95527
-12.35056
-14.29497
-16.03886
-12.22931
-8.73967
-7.56916
-10.42106
-8.41197
-7.87415
-5.97411
-3.36501
-3.33368
-7.55005
-4.65200
-6.23270
-1.08894
-6.84375
-4.40298
-5.42795
-5.69208
-4.13669
-5.59935
-8.91579
-8.18337
-5.03617
-6.65923
-2.34565
0.59105
-5.22154
-6.71604
-11.97788
-1.31743
-3.34376
-6.94493
-8.89954
-13.87773
-13.19421
-10.65357
-7.47837
-2.43538
-4.54241
-12.51222
-14.45821
-4.46586
-6.26667
-6.18082
-6.00933
-4.27152
-5.05815
-10.84675
-9.56546
2.00181
4.21843
-5.59827
0.16377
-1.03495
-6.90524
-7.91894
-0.86957
-10.40646
-16.03542
-8.31827
-9.03689
-10.90229
-10.66894
-9.29356
-12.11150
-12.43455
-12.68558
-8.40636
-11.54214
-12.66513
-13.94320
-10.67641
-9.45359
-15.93535
-6.19584
-7.46565
-5.96761
-6.20753
-7.19243
-13.39004
-14.20597
-11.32548
-9.20943
-7.14224
-5.03161
-6.40601
-3.02416
-4.62873
-4.46743
-4.91270
-0.97977
-3.21999
-1.85104
-0.99078
-1.83368
-2.20341
-4.23481
-0.21790
-6.36854
-8.92862
-3.18018
-3.02555
-3.06158
-9.51389
-6.22907
-6.12193
-10.00715
-9.84401
-8.67817
-10.08261
-6.85237
-8.25336
-5.53764
-2.84967
-6.21151
-3.45218
-1.89726
0.65703
-4.06705
-8.75135
-2.10866
-5.21898
-7.95076
-4.13520
-3.25822
-6.23893
-8.20355
-9.19500
-7.43623
-13.43365
-7.05401
-8.02469
-7.31196
-10.55943
-7.50952
-11.56928
-14.91194
-4.72365
-10.14510
-12.17921
-9.72134
-7.45831
-6.54505
-11.30288
-8.61548
-8.55800
-15.85753
-8.93453
-13.93475
-10.89239
-14.13858
-4.31077
-1.68505
-7.51767
-16.51951
-22.90172
-23.66780
-22.49343
-16.63909
-17.28220
-20.40101
-13.44253
-13.66925
-18.40018
-15.76179
-18.89284
-14.03927
-18.16790
-13.45258
-12.08468
-11.71161
-14.94582
-17.23072
-16.98866
-19.08283
-18.16605
-24.74420
-20.41009
-12.98002
-19.30466
-21.38394
-19.13369
-20.12907
-19.85866
-20.79962
-20.09377
-18.10975
-12.63098
-10.91884
-9.13232
-12.23293
-1.42312
-5.03521
-5.16174
-13.04105
-6.80456
-6.23687
-3.39634
-9.46007
-9.12861
-6.57591
-10.62298
-7.68102
-6.15212
-1.18933
-3.78897
-2.55921
-4.34505
-2.41416
-7.13209
-3.24721
-0.99602
0.02896
7.50453
4.53290
-1.10402
-2.76427
1.04666
2.15371
-2.81072
-4.23383
-2.59372
-8.73710
-4.31923
-0.93489
-5.90179
-4.15728
-2.12841
-2.42963
-5.46677
-7.07436
-4.69668
-5.54012
-1.18562
-6.84740
-8.12633
-8.71995
-3.88121
-1.15206
-4.78639
-6.02323
-8.04835
-4.27528
-7.07698
-8.12184
-12.33919
-5.50796
-4.11808
-6.87072
-5.21790
-11.08724
-8.55540
-8.73162
-16.13345
-12.40888
-1.88225
-7.78166
-8.38144
-4.44276
-7.14771
-9.47013
-10.38395
-9.48585
-3.93296
-4.87282
-12.46743
-5.90928
-3.91296
-4.05879
-8.30717
-6.87446
-6.27274
-3.15086
-10.13467
-6.05751
-9.19146
-4.82538
-10.95030
-12.51452
-15.25108
-12.64807
-16.41362
-14.48708
-16.78837
-17.27128
-14.16002
-18.10393
-11.59579
-14.19571
-19.15977
-15.66914
-14.63203
-8.83471
-10.72935
-9.21967
-13.46907
-14.53853
-11.47009
-12.34485
-9.89038
-13.55035
-5.44354
-11.70286
-10.80276
-16.54737
-18.91549
-15.62562
-17.51897
-6.63811
-11.65814
-9.58143
-3.11680
-9.45666
-8.50251
-9.61535
-5.15138
-7.87896
-3.43531
-4.62069
-3.05307
-7.58752
-6.23275
-9.18024
-5.16616
-2.96865
-2.58346
-6.75064
-6.35657
-4.68039
-6.23949
1.57163
-7.19502
-2.45604
-5.48548
-5.80095
0.04791
-11.25768
-5.93596
-1.98505
-1.09194
-4.20977
-11.29382
-12.53425
-9.63984
-4.60910
-1.93964
-3.59684
-2.52458
1.04297
-4.53350
1.47019
-1.15551
-1.89201
-1.75142
-2.31543
-0.66927
-4.68739
0.13631
-6.59091
-3.61411
-0.41127
-7.96351
-4.45798
-1.02850
-3.75346
-4.55051
-7.70934
-5.19539
-6.35031
-5.79025
-4.38588
-6.85528
-6.85897
-7.38034
-2.63411
-8.95355
-11.26045
-12.74141
-13.11992
-15.25894
-11.59443
-9.74057
-5.99964
-5.96827
-5.98111
-9.64632
-12.23877
-10.25107
-12.91962
-11.82355
-7.56921
-12.90169
-10.75579
-12.96148
-12.96750
-15.93023
-11.41268
-13.87243
-19.79522
-11.94146
-11.18219
-11.72280
-10.76724
-10.18031
-5.71593
-6.89766
-15.64527
-18.86914
-11.93202
-12.57488
-12.76211
-5.72762
-6.42020
-10.68699
-9.20592
-12.73742
-13.52031
-16.38411
-13.99788
-13.65643
-11.38060
-14.29303
-19.97168
-9.00552
-18.20404
-2.86775
-4.68384
-10.12460
-14.65609
-16.25592
-19.02808
-14.94915
-15.09704
-9.62663
-10.25828
-18.75880
-23.87171
-17.95199
-16.06288
-15.86600
-10.49128
-10.78441
-14.09754
-14.52745
-2.62969
-9.94236
-15.58459
-11.01861
-8.62370
-2.63774
-8.28302
-8.15521
-10.42967
0.05084
-4.77599
-13.70105
-13.42752
-5.42385
-3.58500
1.57718
-4.40391
-1.10456
-0.31956
-0.54031
-6.79960
-6.65091
0.53632
-0.59239
-2.74005
-2.70907
-6.67828
-5.64198
0.60663
-0.04746
-0.64300
-0.95973
3.33112
-0.74999
-1.26368
-5.46278
-2.66143
-2.27151
-1.12698
-0.87641
-1.35684
-5.29761
-1.77270
1.96191
-2.42782
-0.08466
-4.24399
-2.05909
-6.22605
-1.62276
-3.57867
-2.02615
-6.34300
-2.07291
-13.67554
-4.65471
-7.61647
-6.74135
-6.57029
-9.58292
-3.85066
-5.54945
-7.66069
-5.88897
-9.03932
-4.54850
-5.00443
-2.63596
-3.94310
-4.75027
-12.52189
-10.57326
-10.16841
-9.65093
-7.29497
-9.64608
-8.73237
-10.62000
-5.43532
-8.83482
-9.17045
-9.83008
-8.12149
-11.65952
-5.32181
-13.19262
-13.46709
-11.03017
-7.10768
-14.72436
-14.92586
-19.68943
-11.99674
-10.00210
-9.18320
-15.27079
-6.01623
-13.51125
-12.15755
-10.94173
-14.70158
-19.39920
-15.48740
-16.95614
-20.13449
-17.81040
-17.49087
-21.62967
-14.62285
-15.64124
-18.42471
-16.91071
-19.40398
-16.93595
-15.11168
-20.19583
-16.04594
-20.85875
-23.12706
-18.71511
-11.09961
-12.91453
-11.46807
-9.69297
-12.01583
-10.17867
-4.13455
-7.85053
-7.43976
-3.87823
-6.11894
-9.68745
-2.84636
-2.69550
-8.52842
-7.54543
-12.52926
-5.95751
-8.25239
-2.71254
-0.79264
-0.72090
-4.41069
-4.03099
-9.81941
-13.60577
-14.98669
-6.35004
-8.63361
-6.82640
-6.06977
-4.08585
-2.40847
-4.48924
-7.13831
-1.89848
-2.13009
-7.31898
-3.85731
-4.08198
-1.23913
-5.38250
-0.82297
-3.71724
-8.43363
-8.31374
-2.41750
-0.98692
-1.40301
-2.90347
-0.78758
-6.11466
-0.65312
-2.16346
-4.65352
-2.00058
-1.97017
1.92292
-3.57753
-1.96375
-0.37589
-5.16439
-2.46436
-6.32201
-1.83411
-9.53994
-7.97234
-17.72983
-15.35842
-15.53625
-12.92366
-16.20920
-9.27305
-4.19878
-7.18063
-12.34312
-13.80997
-5.04725
-5.72069
-6.75055
-6.86568
-9.87221
-17.05179
-11.35044
-6.08063
-7.72691
-4.76864
-11.31891
-5.50784
-3.22518
-3.19807
-4.97518
-6.74474
-7.17207
-7.58739
-5.84318
0.18618
-6.09794
-3.49875
-4.07364
-4.55513
-6.21573
-5.99793
-7.11216
-3.69046
-3.38771
-5.02406
-6.24947
-11.78312
-10.93585
-6.60014
-5.99214
-9.63831
-5.98719
1.21105
-3.12877
-7.45629
-8.93815
-2.23980
-7.82224
-9.01076
-3.98270
-4.10383
-1.13020
-0.24790
4.14721
3.47728
2.40119
6.13287
-0.76643
-0.44687
-4.38033
-4.14689
-1.86552
-0.83484
0.75837
1.94550
-4.37586
-2.89578
-5.67890
-6.43576
-4.72616
-6.53958
-7.76701
-6.39997
-2.26359
2.11030
1.46408
2.96575
1.20389
-6.71176
-6.13820
-8.50100
-3.02202
-0.73247
-2.69471
-4.67529
-3.57541
-6.79692
0.54331
4.17701
-4.72287
-8.99949
1.65597
2.21392
1.34859
1.91894
0.48210
-4.08915
-4.74893
-1.23060
-2.51028
-3.75342
-6.66774
-6.44592
-3.83439
-8.64552
-12.89516
-13.34914
-8.70412
-8.02018
-7.32536
-12.61600
-11.46426
-12.35766
-13.40412
-16.69536
-8.28410
-8.92467
-16.20941
-13.25644
-20.43848
-19.77171
-12.64177
-8.29370
-7.80592
-11.09927
-15.35443
-14.54339
-17.29717
-15.52903
-12.66181
-14.58728
-13.08261
-11.22021
-10.61057
-18.57134
-17.42827
-21.90609
-18.09408
-12.89546
-15.44263
-11.69927
-15.00702
-15.07365
-13.74640
-11.46610
-13.38701
-15.59450
-24.24621
-18.97177
-20.29257
-15.91775
-23.07504
-24.66015
-22.62332
-22.04243
-20.77584
-26.72626
-15.69924
-15.58213
-13.52304
-18.58929
-20.58851
-26.45995
-23.16184
-25.04242
-20.16942
-17.59118
-19.50820
-22.46959
-26.51856
-17.44853
-18.67712
-11.60898
-7.25843
-9.79219
-20.25393
-26.03924
-24.94915
-29.81206
-27.42876
-23.88018
-24.91944
-27.64474
-34.86188
-29.43178
-30.59700
-28.77000
-19.34730
-23.95256
-22.28451
-25.32003
-25.75581
-33.48428
-24.14777
-18.16412
-22.99511
-17.74829
-21.26325
-23.50323
-21.91038
-22.87291
-16.54255
-14.60236
-15.71921
-12.17086
-14.90665
-14.89239
-16.05959
-20.06803
-18.19991
-16.44973
-11.30044
-16.12333
-15.38620
-13.07741
-13.74408
-9.36874
-12.11529
-8.73317
-5.05885
-5.72720
-10.96469
-11.92720
-10.76959
-12.33959
-18.40355
-15.42647
-13.93444
-16.75198
-20.35908
-18.25265
-12.46376
-15.33219
-19.45673
-20.62346
-19.73901
-17.99118
-20.08980
-14.75550
-18.08763
-17.66690
-13.00778
-17.06056
-16.85857
-16.75150
-21.19892
-16.29971
-17.41721
-17.42019
-12.83324
-20.64445
-19.86746
-16.51165
-20.09381
-21.90395
-18.95541
-18.74968
-20.02231
-19.63241
-21.79096
-22.68357
-21.42004
-22.21499
-24.63511
-27.02680
-33.00655
-32.91748
-20.32025
-26.71276
-29.09145
-25.95039
-20.04868
-20.28525
-18.35264
-19.41620
-17.08693
-18.35829
-19.91978
-14.63032
-14.72434
-11.01787
-12.68274
-12.56060
-12.07120
-9.12605
-14.44621
-14.83632
-10.77826
-6.54723
-9.66936
-10.59281
-13.35000
-10.18071
-12.81684
-8.59924
-11.91899
-3.31301
-6.40080
-7.13336
-11.20475
-12.00092
-10.71085
-5.35549
-9.99409
-16.38991
-16.61636
-18.19574
-19.27071
-11.45788
-13.24732
-14.77124
-18.49289
-15.30927
-11.46910
-10.81187
-15.06628
-15.33992
-21.91283
-15.97820
-9.89836
-13.43775
-11.48457
-12.07386
-14.97323
-14.88575
-13.46356
-9.70678
-7.99686
-7.34157
-10.10632
-12.15626
-10.22561
-9.90430
-13.10806
-13.81357
-18.26885
-20.44771
-11.57148
-13.61363
-14.95807
-14.67377
-10.58917
-10.08364
-9.36718
-5.34484
-7.87512
-10.42083
-9.63938
-13.13963
-9.32838
-13.60370
-18.98976
-15.44365
-9.62204
-18.78036
-15.29120
-16.91763
-14.30063
-12.03713
-8.89550
-12.58183
-18.65200
-9.89351
-11.97578
-13.95452
-7.92691
-9.83242
-17.28193
-8.96922
-7.33036
-5.62212
-14.34754
-17.49981
-14.91972
-16.31604
-11.56217
-13.77697
-6.83035
-3.55615
-5.12420
-3.18152
-6.06872
-9.67944
-8.76623
-9.04844
-2.91119
-10.06392
-10.84960
-14.03083
-6.14667
-7.92800
-9.88826
-10.87021
-8.95016
-8.05953
-10.74248
-6.97755
-11.04075
-15.68959
-15.12331
-14.65113
-14.45908
-2.05072
-0.74539
-9.07786
-14.02564
-9.28302
-6.24158
-11.05801
-4.42302
-10.56132
-4.72764
-10.40856
-17.74035
-16.14365
-20.39626
-18.03127
-17.71544
-25.65248
-22.43707
-26.09077
-32.21350
-31.53531
-24.00528
-7.92656
-13.58614
-13.49523
-8.73393
-5.57523
-8.85649
-11.58438
-20.19678
-17.70201
-9.48138
-17.76121
-14.49380
-12.62791
-20.86300
-14.48595
-22.69728
-21.64247
-17.52294
-17.68667
-19.51992
-17.47707
-19.54105
-16.40690
-8.89344
-15.42112
-16.99897
-17.66909
-20.92894
-20.02916
-13.81016
-9.34287
-17.66339
-15.21448
-14.72258
-17.32867
-11.80551
-15.02083
-14.80799
-16.98464
-13.80895
-18.42024
-12.71018
-15.87111
-13.17697
-11.40042
-3.78223
-9.41602
-12.47284
-15.84988
-15.98521
-19.02624
-11.65152
-14.93171
-15.63194
-16.90850
-14.95299
-10.38211
-14.01866
-15.98766
-21.59378
-22.87591
-25.42170
-24.20883
-24.52267
-23.59918
-30.39247
-25.69699
-16.65413
-18.38902
-19.84396
-21.23356
-16.12438
-20.33408
-23.66994
-22.15117
-22.05285
-24.32616
-20.42193
-21.07389
-23.40329
-22.15270
-21.81230
-26.97038
-19.51255
-25.58374
-24.16025
-29.79342
-23.07561
-15.53656
-18.56965
-16.32316
-16.79069
-15.37717
-10.88438
-12.67871
-10.72153
-17.97570
-19.07162
-19.24566
-21.91952
-14.08804
-12.74768
-15.79237
-17.17380
-18.89630
-19.16010
-15.22501
-10.37743
-11.44133
-10.26338
-19.20458
-20.02698
-19.55585
-20.86507
-12.54821
-19.54019
-16.43833
-16.13894
-22.35333
-16.32451
-11.97938
-12.15264
-13.10629
-14.08740
-14.12899
-10.42791
-13.59512
-11.19046
-16.85317
-14.70877
-12.45444
-11.50179
-8.13645
-7.89849
-16.34890
-10.75413
-9.11999
-4.73337
-12.62041
-18.98310
-1.88052
-6.26514
-11.14605
-10.74525
-9.39692
-12.74300
-13.95074
-15.58968
-20.33302
-11.65581
-16.23757
-14.18314
-20.26935
-17.08384
-18.27246
-19.38074
-14.84903
-19.26940
-20.78598
-17.02535
-17.79051
-23.29888
-21.36192
-18.83947
-17.81901
-18.09201
-19.56749
-12.88335
-13.25749
-13.75872
-17.12974
-13.96973
-13.58834
-23.79163
-20.06238
-23.65096
-24.00188
-25.64930
-19.15884
-16.20009
-22.57201
-24.81801
-24.59474
-25.62693
-26.32887
-20.81729
-24.62935
-21.43357
-27.58952
-27.55731
-29.72889
-31.08285
-27.73134
-28.97491
-22.55741
-28.19977
-26.41373
-27.24256
-24.51958
-22.95118
-21.12718
-14.28669
-19.78691
-19.34353
-25.03404
-22.86760
-26.90668
-24.83760
-28.34324
-32.19408
-30.19255
-28.80641
-36.31003
-35.72097
-27.68676
-30.56864
-29.74786
-29.14297
-20.92405
-25.61199
-24.89773
-27.00951
-26.48210
-32.40239
-35.16708
-29.96157
-30.04318
-29.43832
-20.66812
-24.19789
-21.29311
-26.75087
-22.89001
-20.57609
-19.31425
-18.12672
-12.86838
-16.10794
-11.24783
-16.46424
-19.78021
-16.48323
-20.83095
-23.22294
-20.82979
-19.93848
-22.01934
-22.33697
-20.83543
-28.26560
-26.75649
-25.64466
-22.96145
-20.95585
-20.58553
-15.22411
-15.28445
-9.30973
-13.92733
-19.16252
-16.12013
-15.88378
-18.88101
-16.06730
-12.22467
-6.50423
-11.05848
-17.67312
-19.75136
-21.69526
-16.54065
-13.96570
-19.26768
-16.28302
-19.61622
-24.09425
-16.20738
-10.53126
-12.19725
-12.92398
-19.74821
-18.65948
-18.39306
-14.97807
-8.30416
-16.20957
-20.42453
-6.92483
-10.75041
-11.65452
-18.39076
-21.19772
-10.18450
-9.65243
-10.56220
-12.12605
-13.08976
-9.54392
-13.00781
-17.27591
-15.29817
-14.98437
-15.77008
-18.64946
-19.80208
-20.78547
-22.92599
-16.29058
-20.22766
-19.35448
-21.64835
-19.20727
-14.29112
-21.53026
-15.19735
-14.91324
-19.85361
-20.23545
-22.06477
-17.39334
-21.58578
-17.44181
-15.63741
-23.45684
-30.20712
-21.89323
-19.97338
-18.47738
-20.54172
-19.77596
-17.39411
-21.07085
-22.76553
-18.65377
-23.05772
-23.75379
-18.91032
-17.98049
-23.29468
-26.46607
-27.87323
-20.79064
-24.09226
-17.53378
-22.16124
-24.66705
-18.59526
-20.27718
-20.61200
-20.94738
-21.01016
-20.89495
-19.30413
-16.51963
-14.95786
-22.53362
-20.74499
-19.29690
-15.18114
-23.49254
-16.60834
-15.87543
-15.73005
-20.70235
-16.48283
-16.07701
-19.00001
-13.37006
-11.24586
-11.35132
-14.01417
-13.81293
-20.16079
-18.78503
-23.69672
-22.40935
-19.93003
-16.20275
-14.67047
-10.75126
-14.62007
-13.83363
-14.09676
-19.77108
-18.95066
-11.20209
-15.72775
-13.86449
-16.42365
-18.69218
-12.14811
-19.10728
-17.74539
-21.98239
-15.90055
-6.90083
-9.00223
-8.27172
-12.08280
-13.05264
-11.52483
-14.94773
-15.61898
-15.85146
-14.21311
-13.55130
-14.66393
-9.51887
-14.71088
-12.96335
0.61124
-1.02698
-2.22970
-6.71486
-13.35001
-5.67399
-0.07650
-1.90548
-0.45919
-3.07268
-11.25495
-2.15581
-6.58240
-7.59844
-0.16203
2.63422
-0.84823
0.11846
-0.57142
-2.54590
-1.80208
-2.98268
4.61842
2.47235
-1.04062
-6.74840
0.86313
-2.40563
1.89885
-8.63833
-6.27227
-1.29305
-0.99700
-2.78673
-2.63460
0.92061
3.06381
-6.03633
-8.82892
-7.34985
-3.66530
-3.19482
-7.10730
-6.54917
-6.37240
-2.50733
-4.29961
-8.69224
-7.95240
-13.13876
-12.78673
-12.86199
-4.74683
-9.20191
-10.13131
-6.44413
-8.44215
-11.72283
-10.21311
-9.05401
-9.34168
-8.64272
-3.56136
-7.09200
-12.97725
-9.76628
-10.18663
-7.34902
-0.61253
-4.76057
-7.46143
-5.35122
-7.61315
-8.00989
-7.66547
-4.10124
-7.80917
-18.30454
-22.13859
-18.92578
-16.21624
-12.22648
-11.52999
-4.26681
-16.03267
-17.13030
-10.91073
-13.06975
-12.47577
-15.77089
-14.05690
-9.90352
-16.53431
-11.01805
-11.68630
-18.06918
-15.81715
-20.77733
-21.74075
-15.64698
-18.44174
-13.22076
-14.79495
-15.72780
-17.46343
-10.71005
-13.82694
-9.02328
-5.40025
-11.19255
-9.89404
-8.54628
-17.61061
-14.99825
-13.69521
-15.13796
-16.58669
-13.31095
-13.34424
-19.84310
-18.61932
-25.80738
-20.58616
-22.02487
-17.59809
-20.32161
-21.47464
-17.34938
-18.61042
-18.94583
-20.88022
-22.55352
-27.25675
-19.89827
-20.89559
-13.23026
-13.98933
-14.65128
-13.53189
-16.08884
-7.31102
-13.75099
-9.11105
-8.50492